<?xml version="1.0" encoding="UTF-8"?>

<!-- generated on Thu Nov  4 13:18:33 2021 by Eclipse SUMO sumo Version 1.9.0
<configuration xmlns:xsi="http://www.w3.org/2001/XMLSchema-instance" xsi:noNamespaceSchemaLocation="http://sumo.dlr.de/xsd/sumoConfiguration.xsd">

    <input>
        <net-file value="/mainfs/home/bk2g18/RESCO/environments/ingolstadt21/ingolstadt21.net.xml"/>
        <route-files value="/mainfs/home/bk2g18/RESCO/environments/ingolstadt21/ingolstadt21.rou.xml"/>
    </input>

    <output>
        <tripinfo-output value="/mainfs/home/bk2g18/RESCO/logs/MPLight-tr0-ingolstadt21-21-mplight-pressure/tripinfo_12.xml"/>
        <tripinfo-output.write-unfinished value="true"/>
    </output>

    <time>
        <begin value="57600"/>
        <end value="61200"/>
    </time>

    <processing>
        <time-to-teleport value="-1"/>
    </processing>

    <report>
        <xml-validation value="never"/>
        <xml-validation.routes value="never"/>
        <no-warnings value="true"/>
        <no-step-log value="true"/>
    </report>

    <emissions>
        <device.emissions.probability value="1"/>
    </emissions>

    <traci_server>
        <remote-port value="36812"/>
    </traci_server>

    <random_number>
        <random value="true"/>
    </random_number>

</configuration>
-->

<tripinfos xmlns:xsi="http://www.w3.org/2001/XMLSchema-instance" xsi:noNamespaceSchemaLocation="http://sumo.dlr.de/xsd/tripinfo_file.xsd">
    <tripinfo id="carIn60260:1" depart="57606.00" departLane="315358254#0_1" departPos="5.10" departSpeed="0.00" departDelay="0.90" arrival="57661.00" arrivalLane="399835085#1_1" arrivalPos="212.23" arrivalSpeed="8.74" duration="55.00" routeLength="430.98" waitingTime="2.00" waitingCount="1" stopTime="0.00" timeLoss="11.28" rerouteNo="1" devices="tripinfo_carIn60260:1 routing_carIn60260:1 emissions_carIn60260:1" vType="default_016" speedFactor="1.05" vaporized="">
        <emissions CO_abs="2538.586181" CO2_abs="122102.135720" HC_abs="14.393596" PMx_abs="2.118286" NOx_abs="50.301251" fuel_abs="52.487044" electricity_abs="0"/>
    </tripinfo>
    <tripinfo id="h15454c2:3" depart="57612.00" departLane="24608844_1" departPos="5.10" departSpeed="0.00" departDelay="0.50" arrival="57668.00" arrivalLane="32978638#0_1" arrivalPos="49.29" arrivalSpeed="11.30" duration="56.00" routeLength="354.79" waitingTime="2.00" waitingCount="1" stopTime="0.00" timeLoss="16.27" rerouteNo="1" devices="tripinfo_h15454c2:3 routing_h15454c2:3 emissions_h15454c2:3" vType="default_016" speedFactor="0.86" vaporized="">
        <emissions CO_abs="2827.132147" CO2_abs="123455.909695" HC_abs="15.753925" PMx_abs="2.265826" NOx_abs="51.723803" fuel_abs="53.069007" electricity_abs="0"/>
    </tripinfo>
    <tripinfo id="carIn53971:1" depart="57640.00" departLane="272042143_1" departPos="5.10" departSpeed="0.00" departDelay="0.80" arrival="57703.00" arrivalLane="24634414#1_1" arrivalPos="162.19" arrivalSpeed="6.11" duration="63.00" routeLength="493.04" waitingTime="0.00" waitingCount="0" stopTime="0.00" timeLoss="7.89" rerouteNo="1" devices="tripinfo_carIn53971:1 routing_carIn53971:1 emissions_carIn53971:1" vType="default_016" speedFactor="0.83" vaporized="">
        <emissions CO_abs="2628.936679" CO2_abs="128175.478732" HC_abs="14.935493" PMx_abs="2.159860" NOx_abs="52.343123" fuel_abs="55.097814" electricity_abs="0"/>
    </tripinfo>
    <tripinfo id="h3688c1:1" depart="57625.00" departLane="201201950#1_1" departPos="5.10" departSpeed="0.00" departDelay="0.00" arrival="57722.00" arrivalLane="32978638#0_1" arrivalPos="49.29" arrivalSpeed="13.04" duration="97.00" routeLength="1089.75" waitingTime="0.00" waitingCount="0" stopTime="0.00" timeLoss="13.51" rerouteNo="1" devices="tripinfo_h3688c1:1 routing_h3688c1:1 emissions_h3688c1:1" vType="default_016" speedFactor="0.96" vaporized="">
        <emissions CO_abs="3394.751296" CO2_abs="244856.226658" HC_abs="21.185873" PMx_abs="4.071093" NOx_abs="97.963133" fuel_abs="105.253342" electricity_abs="0"/>
    </tripinfo>
    <tripinfo id="h7800c1:5" depart="57696.00" departLane="-447569998#1_1" departPos="5.10" departSpeed="0.00" departDelay="0.00" arrival="57722.00" arrivalLane="-447569998#1_1" arrivalPos="180.76" arrivalSpeed="7.24" duration="26.00" routeLength="175.66" waitingTime="0.00" waitingCount="0" stopTime="0.00" timeLoss="3.71" rerouteNo="1" devices="tripinfo_h7800c1:5 routing_h7800c1:5 emissions_h7800c1:5" vType="default_016" speedFactor="0.98" vaporized="">
        <emissions CO_abs="1216.065385" CO2_abs="51347.388331" HC_abs="6.714596" PMx_abs="0.845144" NOx_abs="20.940366" fuel_abs="22.072469" electricity_abs="0"/>
    </tripinfo>
    <tripinfo id="h12244c1:3" depart="57612.00" departLane="315358244_1" departPos="5.10" departSpeed="0.00" departDelay="0.40" arrival="57726.00" arrivalLane="386687235_1" arrivalPos="80.84" arrivalSpeed="13.42" duration="114.00" routeLength="1186.14" waitingTime="12.00" waitingCount="2" stopTime="0.00" timeLoss="28.44" rerouteNo="1" devices="tripinfo_h12244c1:3 routing_h12244c1:3 emissions_h12244c1:3" vType="default_016" speedFactor="1.01" vaporized="">
        <emissions CO_abs="4177.715107" CO2_abs="264314.879902" HC_abs="25.168259" PMx_abs="4.456537" NOx_abs="105.839682" fuel_abs="113.618164" electricity_abs="0"/>
    </tripinfo>
    <tripinfo id="carIn22761:1" depart="57616.00" departLane="-306240162#1_0" departPos="5.10" departSpeed="0.00" departDelay="2.10" arrival="57739.00" arrivalLane="399835085#1_1" arrivalPos="212.23" arrivalSpeed="9.01" duration="123.00" routeLength="1093.26" waitingTime="21.00" waitingCount="2" stopTime="0.00" timeLoss="54.90" rerouteNo="1" devices="tripinfo_carIn22761:1 routing_carIn22761:1 emissions_carIn22761:1" vType="default_016" speedFactor="1.14" vaporized="">
        <emissions CO_abs="7469.974883" CO2_abs="357681.189139" HC_abs="42.511065" PMx_abs="7.033523" NOx_abs="150.351403" fuel_abs="153.752490" electricity_abs="0"/>
    </tripinfo>
    <tripinfo id="h317c2:1" depart="57707.00" departLane="-32978638#0_1" departPos="5.10" departSpeed="0.00" departDelay="0.10" arrival="57741.00" arrivalLane="-266565295#5_1" arrivalPos="172.76" arrivalSpeed="13.26" duration="34.00" routeLength="370.53" waitingTime="0.00" waitingCount="0" stopTime="0.00" timeLoss="5.27" rerouteNo="1" devices="tripinfo_h317c2:1 routing_h317c2:1 emissions_h317c2:1" vType="default_016" speedFactor="0.98" vaporized="">
        <emissions CO_abs="1644.060571" CO2_abs="110218.397398" HC_abs="10.077851" PMx_abs="1.929868" NOx_abs="44.853009" fuel_abs="47.378168" electricity_abs="0"/>
    </tripinfo>
    <tripinfo id="h7181c1:1" depart="57660.00" departLane="315358254#0_1" departPos="5.10" departSpeed="0.00" departDelay="0.10" arrival="57742.00" arrivalLane="306240162#0_0" arrivalPos="220.43" arrivalSpeed="13.87" duration="82.00" routeLength="932.35" waitingTime="9.00" waitingCount="1" stopTime="0.00" timeLoss="25.39" rerouteNo="1" devices="tripinfo_h7181c1:1 routing_h7181c1:1 emissions_h7181c1:1" vType="default_016" speedFactor="0.91" vaporized="">
        <emissions CO_abs="4603.643187" CO2_abs="274703.492666" HC_abs="27.394182" PMx_abs="5.280300" NOx_abs="113.795896" fuel_abs="118.083064" electricity_abs="0"/>
    </tripinfo>
    <tripinfo id="S5R_frequency1.2" depart="57634.00" departLane="315358250#0_1" departPos="12.10" departSpeed="0.00" departDelay="22.40" arrival="57746.00" arrivalLane="386687235_1" arrivalPos="80.84" arrivalSpeed="13.48" duration="112.00" routeLength="1115.62" waitingTime="7.00" waitingCount="1" stopTime="0.00" timeLoss="29.99" rerouteNo="1" devices="tripinfo_S5R_frequency1.2 routing_S5R_frequency1.2 emissions_S5R_frequency1.2" vType="bus" speedFactor="1.00" vaporized="">
        <emissions CO_abs="2343.569487" CO2_abs="1448570.328301" HC_abs="485.590621" PMx_abs="250.159849" NOx_abs="11305.659060" fuel_abs="617.782239" electricity_abs="0"/>
    </tripinfo>
    <tripinfo id="carIn80064:1" depart="57603.00" departLane="128361109#1_1" departPos="5.10" departSpeed="0.00" departDelay="0.40" arrival="57748.00" arrivalLane="-315358254#1_1" arrivalPos="137.16" arrivalSpeed="11.70" duration="145.00" routeLength="1587.97" waitingTime="21.00" waitingCount="1" stopTime="0.00" timeLoss="43.68" rerouteNo="1" devices="tripinfo_carIn80064:1 routing_carIn80064:1 emissions_carIn80064:1" vType="default_016" speedFactor="0.88" vaporized="">
        <emissions CO_abs="8334.670357" CO2_abs="441535.457971" HC_abs="48.374093" PMx_abs="8.552645" NOx_abs="182.972300" fuel_abs="189.797613" electricity_abs="0"/>
    </tripinfo>
    <tripinfo id="h3568c1:3" depart="57656.00" departLane="266565295#5_1" departPos="5.10" departSpeed="0.00" departDelay="0.80" arrival="57748.00" arrivalLane="-24634415_1" arrivalPos="62.03" arrivalSpeed="11.81" duration="92.00" routeLength="807.40" waitingTime="1.00" waitingCount="1" stopTime="0.00" timeLoss="20.67" rerouteNo="1" devices="tripinfo_h3568c1:3 routing_h3568c1:3 emissions_h3568c1:3" vType="default_016" speedFactor="0.90" vaporized="">
        <emissions CO_abs="4436.264513" CO2_abs="245475.234555" HC_abs="25.940281" PMx_abs="4.316228" NOx_abs="100.807900" fuel_abs="105.519840" electricity_abs="0"/>
    </tripinfo>
    <tripinfo id="carIn121703:1" depart="57647.00" departLane="386687232#0_1" departPos="5.10" departSpeed="0.00" departDelay="0.30" arrival="57752.00" arrivalLane="-315358244_1" arrivalPos="33.95" arrivalSpeed="12.28" duration="105.00" routeLength="1157.39" waitingTime="4.00" waitingCount="1" stopTime="0.00" timeLoss="15.09" rerouteNo="1" devices="tripinfo_carIn121703:1 routing_carIn121703:1 emissions_carIn121703:1" vType="default_016" speedFactor="0.94" vaporized="">
        <emissions CO_abs="2750.814627" CO2_abs="222037.930914" HC_abs="17.668823" PMx_abs="3.355086" NOx_abs="86.296050" fuel_abs="95.444993" electricity_abs="0"/>
    </tripinfo>
    <tripinfo id="h9563c2:5" depart="57631.00" departLane="315358244_1" departPos="5.10" departSpeed="0.00" departDelay="0.70" arrival="57753.00" arrivalLane="386687235_1" arrivalPos="80.84" arrivalSpeed="10.10" duration="122.00" routeLength="1186.14" waitingTime="0.00" waitingCount="0" stopTime="0.00" timeLoss="9.71" rerouteNo="1" devices="tripinfo_h9563c2:5 routing_h9563c2:5 emissions_h9563c2:5" vType="default_016" speedFactor="0.77" vaporized="">
        <emissions CO_abs="3297.687537" CO2_abs="232235.522741" HC_abs="20.324674" PMx_abs="3.284237" NOx_abs="89.865415" fuel_abs="99.829113" electricity_abs="0"/>
    </tripinfo>
    <tripinfo id="carIn30817:1" depart="57681.00" departLane="315358244_1" departPos="5.10" departSpeed="0.00" departDelay="0.20" arrival="57760.00" arrivalLane="447569997#1_1" arrivalPos="180.93" arrivalSpeed="8.60" duration="79.00" routeLength="718.04" waitingTime="10.00" waitingCount="1" stopTime="0.00" timeLoss="22.15" rerouteNo="1" devices="tripinfo_carIn30817:1 routing_carIn30817:1 emissions_carIn30817:1" vType="default_016" speedFactor="1.09" vaporized="">
        <emissions CO_abs="4060.382339" CO2_abs="207772.990385" HC_abs="23.269994" PMx_abs="3.688123" NOx_abs="84.732703" fuel_abs="89.313453" electricity_abs="0"/>
    </tripinfo>
    <tripinfo id="carIn86816:1" depart="57617.00" departLane="128361102#0_1" departPos="5.10" departSpeed="0.00" departDelay="0.80" arrival="57769.00" arrivalLane="201956811#0_1" arrivalPos="40.40" arrivalSpeed="15.17" duration="152.00" routeLength="2067.33" waitingTime="1.00" waitingCount="1" stopTime="0.00" timeLoss="20.96" rerouteNo="1" devices="tripinfo_carIn86816:1 routing_carIn86816:1 emissions_carIn86816:1" vType="default_016" speedFactor="1.16" vaporized="">
        <emissions CO_abs="5343.333520" CO2_abs="454648.661867" HC_abs="34.854224" PMx_abs="7.854279" NOx_abs="181.048588" fuel_abs="195.433212" electricity_abs="0"/>
    </tripinfo>
    <tripinfo id="h330c1:1" depart="57736.00" departLane="-32978638#0_1" departPos="5.10" departSpeed="0.00" departDelay="0.20" arrival="57769.00" arrivalLane="-266565295#5_1" arrivalPos="172.76" arrivalSpeed="13.58" duration="33.00" routeLength="370.53" waitingTime="0.00" waitingCount="0" stopTime="0.00" timeLoss="5.76" rerouteNo="1" devices="tripinfo_h330c1:1 routing_h330c1:1 emissions_h330c1:1" vType="default_016" speedFactor="1.01" vaporized="">
        <emissions CO_abs="1672.374374" CO2_abs="105205.967323" HC_abs="10.097336" PMx_abs="1.906933" NOx_abs="43.294120" fuel_abs="45.223521" electricity_abs="0"/>
    </tripinfo>
    <tripinfo id="h3154c1:1" depart="57658.00" departLane="24634507_1" departPos="5.10" departSpeed="0.00" departDelay="0.00" arrival="57775.00" arrivalLane="-266565295#5_1" arrivalPos="172.76" arrivalSpeed="14.52" duration="117.00" routeLength="1206.22" waitingTime="18.00" waitingCount="1" stopTime="0.00" timeLoss="34.28" rerouteNo="1" devices="tripinfo_h3154c1:1 routing_h3154c1:1 emissions_h3154c1:1" vType="default_016" speedFactor="1.08" vaporized="">
        <emissions CO_abs="6518.778499" CO2_abs="345762.596231" HC_abs="37.743298" PMx_abs="6.442311" NOx_abs="142.623489" fuel_abs="148.629141" electricity_abs="0"/>
    </tripinfo>
    <tripinfo id="carIn27009:1" depart="57673.00" departLane="-447569998#1_1" departPos="5.10" departSpeed="0.00" departDelay="0.50" arrival="57775.00" arrivalLane="-26677539_1" arrivalPos="152.75" arrivalSpeed="9.22" duration="102.00" routeLength="699.63" waitingTime="16.00" waitingCount="1" stopTime="0.00" timeLoss="29.24" rerouteNo="1" devices="tripinfo_carIn27009:1 routing_carIn27009:1 emissions_carIn27009:1" vType="default_015" speedFactor="1.15" vaporized="">
        <emissions CO_abs="5455.543328" CO2_abs="216323.260006" HC_abs="29.864050" PMx_abs="3.903306" NOx_abs="89.996873" fuel_abs="92.989706" electricity_abs="0"/>
    </tripinfo>
    <tripinfo id="h5979c1:5" depart="57669.00" departLane="399835085#1_1" departPos="5.10" departSpeed="0.00" departDelay="0.00" arrival="57779.00" arrivalLane="-315358254#1_1" arrivalPos="137.16" arrivalSpeed="13.25" duration="110.00" routeLength="659.33" waitingTime="22.00" waitingCount="1" stopTime="0.00" timeLoss="35.39" rerouteNo="1" devices="tripinfo_h5979c1:5 routing_h5979c1:5 emissions_h5979c1:5" vType="default_016" speedFactor="0.99" vaporized="">
        <emissions CO_abs="6780.758149" CO2_abs="229072.784836" HC_abs="36.179315" PMx_abs="4.199600" NOx_abs="95.541880" fuel_abs="98.471053" electricity_abs="0"/>
    </tripinfo>
    <tripinfo id="carIn12365:1" depart="57713.00" departLane="315358244_1" departPos="5.10" departSpeed="0.00" departDelay="0.50" arrival="57788.00" arrivalLane="447569997#1_1" arrivalPos="180.93" arrivalSpeed="9.37" duration="75.00" routeLength="718.04" waitingTime="7.00" waitingCount="1" stopTime="0.00" timeLoss="20.46" rerouteNo="1" devices="tripinfo_carIn12365:1 routing_carIn12365:1 emissions_carIn12365:1" vType="default_016" speedFactor="1.14" vaporized="">
        <emissions CO_abs="3130.149377" CO2_abs="190098.794842" HC_abs="18.551715" PMx_abs="3.266813" NOx_abs="76.761986" fuel_abs="81.715667" electricity_abs="0"/>
    </tripinfo>
    <tripinfo id="h3326c1:2" depart="57656.00" departLane="22716069#0_1" departPos="5.10" departSpeed="0.00" departDelay="0.00" arrival="57793.00" arrivalLane="24634517#13_1" arrivalPos="111.62" arrivalSpeed="11.05" duration="137.00" routeLength="1312.81" waitingTime="0.00" waitingCount="0" stopTime="0.00" timeLoss="14.88" rerouteNo="1" devices="tripinfo_h3326c1:2 routing_h3326c1:2 emissions_h3326c1:2" vType="default_016" speedFactor="0.80" vaporized="">
        <emissions CO_abs="4391.492850" CO2_abs="293579.191060" HC_abs="26.782983" PMx_abs="4.591663" NOx_abs="116.620455" fuel_abs="126.197895" electricity_abs="0"/>
    </tripinfo>
    <tripinfo id="h16072c2:3" depart="57663.00" departLane="315358254#0_1" departPos="5.10" departSpeed="0.00" departDelay="2.50" arrival="57796.00" arrivalLane="386687235_1" arrivalPos="80.84" arrivalSpeed="13.98" duration="133.00" routeLength="1611.92" waitingTime="1.00" waitingCount="1" stopTime="0.00" timeLoss="16.88" rerouteNo="1" devices="tripinfo_h16072c2:3 routing_h16072c2:3 emissions_h16072c2:3" vType="default_016" speedFactor="1.01" vaporized="">
        <emissions CO_abs="3818.948444" CO2_abs="329704.578350" HC_abs="25.020505" PMx_abs="5.131269" NOx_abs="128.458982" fuel_abs="141.726068" electricity_abs="0"/>
    </tripinfo>
    <tripinfo id="carIn12858:1" depart="57661.00" departLane="128361109#1_1" departPos="5.10" departSpeed="0.00" departDelay="0.90" arrival="57798.00" arrivalLane="399835085#1_1" arrivalPos="212.23" arrivalSpeed="6.97" duration="137.00" routeLength="1738.12" waitingTime="0.00" waitingCount="0" stopTime="0.00" timeLoss="20.18" rerouteNo="1" devices="tripinfo_carIn12858:1 routing_carIn12858:1 emissions_carIn12858:1" vType="default_016" speedFactor="0.99" vaporized="">
        <emissions CO_abs="6926.396434" CO2_abs="465264.040108" HC_abs="42.589897" PMx_abs="8.886509" NOx_abs="191.673925" fuel_abs="199.996180" electricity_abs="0"/>
    </tripinfo>
    <tripinfo id="h645c1:1" depart="57622.00" departLane="266565295#5_1" departPos="5.10" departSpeed="0.00" departDelay="0.40" arrival="57803.00" arrivalLane="-315358244_1" arrivalPos="33.95" arrivalSpeed="13.94" duration="181.00" routeLength="1910.83" waitingTime="19.00" waitingCount="4" stopTime="0.00" timeLoss="52.60" rerouteNo="1" devices="tripinfo_h645c1:1 routing_h645c1:1 emissions_h645c1:1" vType="default_016" speedFactor="1.08" vaporized="">
        <emissions CO_abs="7038.872222" CO2_abs="452830.240786" HC_abs="42.558201" PMx_abs="8.031255" NOx_abs="183.663385" fuel_abs="194.652510" electricity_abs="0"/>
    </tripinfo>
    <tripinfo id="carIn107282:1" depart="57749.00" departLane="-447569998#1_1" departPos="5.10" departSpeed="0.00" departDelay="0.00" arrival="57806.00" arrivalLane="315358242#0_1" arrivalPos="165.37" arrivalSpeed="13.62" duration="57.00" routeLength="448.50" waitingTime="7.00" waitingCount="1" stopTime="0.00" timeLoss="15.15" rerouteNo="1" devices="tripinfo_carIn107282:1 routing_carIn107282:1 emissions_carIn107282:1" vType="default_016" speedFactor="1.01" vaporized="">
        <emissions CO_abs="2669.218677" CO2_abs="129188.895857" HC_abs="15.145672" PMx_abs="2.241370" NOx_abs="52.833833" fuel_abs="55.533395" electricity_abs="0"/>
    </tripinfo>
    <tripinfo id="h11737c1:1" depart="57665.00" departLane="272042143_1" departPos="5.10" departSpeed="0.00" departDelay="1.50" arrival="57818.00" arrivalLane="-315358254#1_1" arrivalPos="137.16" arrivalSpeed="12.77" duration="153.00" routeLength="1596.88" waitingTime="9.00" waitingCount="1" stopTime="0.00" timeLoss="27.38" rerouteNo="1" devices="tripinfo_h11737c1:1 routing_h11737c1:1 emissions_h11737c1:1" vType="default_016" speedFactor="0.93" vaporized="">
        <emissions CO_abs="5221.329422" CO2_abs="347986.860871" HC_abs="31.880476" PMx_abs="5.662965" NOx_abs="138.390714" fuel_abs="149.585374" electricity_abs="0"/>
    </tripinfo>
    <tripinfo id="carIn126288:1" depart="57674.00" departLane="272042143_1" departPos="5.10" departSpeed="0.00" departDelay="0.00" arrival="57819.00" arrivalLane="-315358254#1_1" arrivalPos="137.16" arrivalSpeed="13.78" duration="145.00" routeLength="1596.88" waitingTime="8.00" waitingCount="1" stopTime="0.00" timeLoss="36.78" rerouteNo="1" devices="tripinfo_carIn126288:1 routing_carIn126288:1 emissions_carIn126288:1" vType="default_016" speedFactor="1.08" vaporized="">
        <emissions CO_abs="5432.709180" CO2_abs="382311.839808" HC_abs="33.600488" PMx_abs="6.578215" NOx_abs="153.957029" fuel_abs="164.339496" electricity_abs="0"/>
    </tripinfo>
    <tripinfo id="carIn81860:1" depart="57712.00" departLane="128361102#0_1" departPos="5.10" departSpeed="0.00" departDelay="0.60" arrival="57819.00" arrivalLane="-24634517#17_1" arrivalPos="6.43" arrivalSpeed="6.71" duration="107.00" routeLength="1229.64" waitingTime="0.00" waitingCount="0" stopTime="0.00" timeLoss="14.89" rerouteNo="1" devices="tripinfo_carIn81860:1 routing_carIn81860:1 emissions_carIn81860:1" vType="default_016" speedFactor="0.98" vaporized="">
        <emissions CO_abs="3666.865361" CO2_abs="263419.167058" HC_abs="22.880648" PMx_abs="4.527983" NOx_abs="106.402479" fuel_abs="113.232545" electricity_abs="0"/>
    </tripinfo>
    <tripinfo id="carIn12152:1" depart="57647.00" departLane="24599188#0.94_1" departPos="5.10" departSpeed="0.00" departDelay="0.50" arrival="57824.00" arrivalLane="-315358254#1_1" arrivalPos="137.16" arrivalSpeed="15.39" duration="177.00" routeLength="2034.31" waitingTime="8.00" waitingCount="2" stopTime="0.00" timeLoss="37.04" rerouteNo="1" devices="tripinfo_carIn12152:1 routing_carIn12152:1 emissions_carIn12152:1" vType="default_016" speedFactor="1.13" vaporized="">
        <emissions CO_abs="5872.848917" CO2_abs="426818.870412" HC_abs="36.591450" PMx_abs="7.255695" NOx_abs="170.243476" fuel_abs="183.471236" electricity_abs="0"/>
    </tripinfo>
    <tripinfo id="carIn82278:1" depart="57702.00" departLane="-306240162#1_0" departPos="5.10" departSpeed="0.00" departDelay="0.70" arrival="57827.00" arrivalLane="399835085#1_1" arrivalPos="212.23" arrivalSpeed="7.49" duration="125.00" routeLength="1093.26" waitingTime="22.00" waitingCount="1" stopTime="0.00" timeLoss="44.20" rerouteNo="1" devices="tripinfo_carIn82278:1 routing_carIn82278:1 emissions_carIn82278:1" vType="default_016" speedFactor="0.97" vaporized="">
        <emissions CO_abs="8304.068036" CO2_abs="378843.002839" HC_abs="46.780458" PMx_abs="7.373508" NOx_abs="158.126685" fuel_abs="162.849601" electricity_abs="0"/>
    </tripinfo>
    <tripinfo id="carIn50326:1" depart="57651.00" departLane="128361102#0_1" departPos="5.10" departSpeed="0.00" departDelay="0.30" arrival="57829.00" arrivalLane="18809673#0_1" arrivalPos="473.56" arrivalSpeed="12.02" duration="178.00" routeLength="1591.07" waitingTime="14.00" waitingCount="1" stopTime="0.00" timeLoss="33.88" rerouteNo="1" devices="tripinfo_carIn50326:1 routing_carIn50326:1 emissions_carIn50326:1" vType="default_016" speedFactor="0.90" vaporized="">
        <emissions CO_abs="7067.215954" CO2_abs="379159.693988" HC_abs="40.957285" PMx_abs="6.189177" NOx_abs="151.968228" fuel_abs="162.986345" electricity_abs="0"/>
    </tripinfo>
    <tripinfo id="h17549c1:1" depart="57680.00" departLane="-447569998#1_1" departPos="5.10" departSpeed="0.00" departDelay="0.00" arrival="57829.00" arrivalLane="-315358254#1_1" arrivalPos="137.16" arrivalSpeed="14.59" duration="149.00" routeLength="1746.60" waitingTime="8.00" waitingCount="1" stopTime="0.00" timeLoss="25.69" rerouteNo="1" devices="tripinfo_h17549c1:1 routing_h17549c1:1 emissions_h17549c1:1" vType="default_016" speedFactor="1.11" vaporized="">
        <emissions CO_abs="5295.571780" CO2_abs="393360.158784" HC_abs="33.265047" PMx_abs="6.620164" NOx_abs="156.509635" fuel_abs="169.088776" electricity_abs="0"/>
    </tripinfo>
    <tripinfo id="h4538c1:1" depart="57701.00" departLane="-10427692#1_1" departPos="5.10" departSpeed="0.00" departDelay="0.00" arrival="57839.00" arrivalLane="-128361102#1_1" arrivalPos="274.68" arrivalSpeed="12.38" duration="138.00" routeLength="440.74" waitingTime="94.00" waitingCount="1" stopTime="0.00" timeLoss="102.97" rerouteNo="1" devices="tripinfo_h4538c1:1 routing_h4538c1:1 emissions_h4538c1:1" vType="default_016" speedFactor="0.90" vaporized="">
        <emissions CO_abs="16498.148950" CO2_abs="348973.367405" HC_abs="83.312689" PMx_abs="7.879941" NOx_abs="154.318060" fuel_abs="150.015570" electricity_abs="0"/>
    </tripinfo>
    <tripinfo id="randUni31145:1" depart="57814.00" departLane="10425609#0_1" departPos="5.10" departSpeed="0.00" departDelay="0.30" arrival="57843.00" arrivalLane="201956810_1" arrivalPos="71.65" arrivalSpeed="14.26" duration="29.00" routeLength="255.78" waitingTime="0.00" waitingCount="0" stopTime="0.00" timeLoss="10.21" rerouteNo="1" devices="tripinfo_randUni31145:1 routing_randUni31145:1 emissions_randUni31145:1" vType="random_016" speedFactor="1.07" vaporized="">
        <emissions CO_abs="2277.921278" CO2_abs="116956.711315" HC_abs="13.150912" PMx_abs="2.312573" NOx_abs="49.730712" fuel_abs="50.274688" electricity_abs="0"/>
    </tripinfo>
    <tripinfo id="carIn129809:1" depart="57729.00" departLane="-447569998#1_1" departPos="5.10" departSpeed="0.00" departDelay="1.00" arrival="57844.00" arrivalLane="-315358244_1" arrivalPos="33.95" arrivalSpeed="12.03" duration="115.00" routeLength="706.49" waitingTime="35.00" waitingCount="2" stopTime="0.00" timeLoss="49.59" rerouteNo="1" devices="tripinfo_carIn129809:1 routing_carIn129809:1 emissions_carIn129809:1" vType="default_015" speedFactor="0.93" vaporized="">
        <emissions CO_abs="7925.654498" CO2_abs="262971.618671" HC_abs="42.212139" PMx_abs="4.990005" NOx_abs="110.260378" fuel_abs="113.042992" electricity_abs="0"/>
    </tripinfo>
    <tripinfo id="h5216c1:1" depart="57664.00" departLane="224892339#0_1" departPos="5.10" departSpeed="0.00" departDelay="0.00" arrival="57845.00" arrivalLane="386687235_1" arrivalPos="80.84" arrivalSpeed="13.72" duration="181.00" routeLength="1823.78" waitingTime="12.00" waitingCount="2" stopTime="0.00" timeLoss="57.83" rerouteNo="1" devices="tripinfo_h5216c1:1 routing_h5216c1:1 emissions_h5216c1:1" vType="default_016" speedFactor="1.04" vaporized="">
        <emissions CO_abs="6962.221221" CO2_abs="438676.154716" HC_abs="41.895549" PMx_abs="7.336604" NOx_abs="175.711538" fuel_abs="188.569023" electricity_abs="0"/>
    </tripinfo>
    <tripinfo id="randUni2407:1" depart="57820.00" departLane="10425609#0_1" departPos="5.10" departSpeed="0.00" departDelay="0.80" arrival="57845.00" arrivalLane="201956810_1" arrivalPos="71.65" arrivalSpeed="16.26" duration="25.00" routeLength="255.78" waitingTime="0.00" waitingCount="0" stopTime="0.00" timeLoss="8.56" rerouteNo="1" devices="tripinfo_randUni2407:1 routing_randUni2407:1 emissions_randUni2407:1" vType="random_016" speedFactor="1.24" vaporized="">
        <emissions CO_abs="1739.098385" CO2_abs="105793.125182" HC_abs="10.430702" PMx_abs="2.010450" NOx_abs="44.167478" fuel_abs="45.475819" electricity_abs="0"/>
    </tripinfo>
    <tripinfo id="carIn102915:1" depart="57643.00" departLane="128361102#0_1" departPos="5.10" departSpeed="0.00" departDelay="0.40" arrival="57852.00" arrivalLane="201956811#0_1" arrivalPos="40.40" arrivalSpeed="11.92" duration="209.00" routeLength="2067.33" waitingTime="19.00" waitingCount="1" stopTime="0.00" timeLoss="39.64" rerouteNo="1" devices="tripinfo_carIn102915:1 routing_carIn102915:1 emissions_carIn102915:1" vType="default_016" speedFactor="0.89" vaporized="">
        <emissions CO_abs="7234.414826" CO2_abs="435565.267801" HC_abs="43.016898" PMx_abs="6.843458" NOx_abs="171.731093" fuel_abs="187.232726" electricity_abs="0"/>
    </tripinfo>
    <tripinfo id="carIn118591:1" depart="57689.00" departLane="315358244_1" departPos="5.10" departSpeed="0.00" departDelay="0.20" arrival="57854.00" arrivalLane="386687235_1" arrivalPos="80.84" arrivalSpeed="12.61" duration="165.00" routeLength="1186.14" waitingTime="46.00" waitingCount="4" stopTime="0.00" timeLoss="72.82" rerouteNo="1" devices="tripinfo_carIn118591:1 routing_carIn118591:1 emissions_carIn118591:1" vType="default_016" speedFactor="0.94" vaporized="">
        <emissions CO_abs="9534.201149" CO2_abs="376372.486290" HC_abs="52.216118" PMx_abs="6.990685" NOx_abs="156.087000" fuel_abs="161.789117" electricity_abs="0"/>
    </tripinfo>
    <tripinfo id="randUni33724:1" depart="57646.00" departLane="128361102#0_1" departPos="5.10" departSpeed="0.00" departDelay="1.20" arrival="57855.00" arrivalLane="201956811#0_1" arrivalPos="40.40" arrivalSpeed="12.29" duration="209.00" routeLength="2067.33" waitingTime="17.00" waitingCount="1" stopTime="0.00" timeLoss="53.23" rerouteNo="1" devices="tripinfo_randUni33724:1 routing_randUni33724:1 emissions_randUni33724:1" vType="random_016" speedFactor="0.97" vaporized="">
        <emissions CO_abs="8396.743666" CO2_abs="487911.862231" HC_abs="49.661153" PMx_abs="8.488563" NOx_abs="198.280447" fuel_abs="209.733442" electricity_abs="0"/>
    </tripinfo>
    <tripinfo id="h8343c1:5" depart="57679.00" departLane="315358254#0_1" departPos="5.10" departSpeed="0.00" departDelay="0.60" arrival="57861.00" arrivalLane="-24634510#5_1" arrivalPos="236.88" arrivalSpeed="13.23" duration="182.00" routeLength="2056.84" waitingTime="25.00" waitingCount="2" stopTime="0.00" timeLoss="57.45" rerouteNo="1" devices="tripinfo_h8343c1:5 routing_h8343c1:5 emissions_h8343c1:5" vType="default_016" speedFactor="1.00" vaporized="">
        <emissions CO_abs="10748.246988" CO2_abs="607679.464390" HC_abs="63.410744" PMx_abs="11.815629" NOx_abs="251.040409" fuel_abs="261.215406" electricity_abs="0"/>
    </tripinfo>
    <tripinfo id="h17600c1:1" depart="57662.00" departLane="272042143_1" departPos="5.10" departSpeed="0.00" departDelay="0.30" arrival="57868.00" arrivalLane="201238729#3_1" arrivalPos="431.02" arrivalSpeed="10.63" duration="206.00" routeLength="2100.26" waitingTime="9.00" waitingCount="1" stopTime="0.00" timeLoss="26.53" rerouteNo="1" devices="tripinfo_h17600c1:1 routing_h17600c1:1 emissions_h17600c1:1" vType="default_016" speedFactor="0.84" vaporized="">
        <emissions CO_abs="5497.772399" CO2_abs="408221.657965" HC_abs="34.416172" PMx_abs="5.907179" NOx_abs="157.803967" fuel_abs="175.478425" electricity_abs="0"/>
    </tripinfo>
    <tripinfo id="randUni15030:1" depart="57735.00" departLane="386687232#0_1" departPos="5.10" departSpeed="0.00" departDelay="0.10" arrival="57872.00" arrivalLane="26677539_1" arrivalPos="151.98" arrivalSpeed="6.83" duration="137.00" routeLength="919.89" waitingTime="25.00" waitingCount="1" stopTime="0.00" timeLoss="39.78" rerouteNo="1" devices="tripinfo_randUni15030:1 routing_randUni15030:1 emissions_randUni15030:1" vType="random_016" speedFactor="0.86" vaporized="">
        <emissions CO_abs="7362.461113" CO2_abs="265013.571658" HC_abs="39.634929" PMx_abs="4.632823" NOx_abs="108.837246" fuel_abs="113.920803" electricity_abs="0"/>
    </tripinfo>