<?xml version="1.0" encoding="UTF-8"?>

<!-- generated on Thu Nov  4 13:51:35 2021 by Eclipse SUMO sumo Version 1.9.0
<configuration xmlns:xsi="http://www.w3.org/2001/XMLSchema-instance" xsi:noNamespaceSchemaLocation="http://sumo.dlr.de/xsd/sumoConfiguration.xsd">

    <input>
        <net-file value="/mainfs/home/bk2g18/RESCO/environments/ingolstadt21/ingolstadt21.net.xml"/>
        <route-files value="/mainfs/home/bk2g18/RESCO/environments/ingolstadt21/ingolstadt21.rou.xml"/>
    </input>

    <output>
        <tripinfo-output value="/mainfs/home/bk2g18/RESCO/logs/MPLight-tr0-ingolstadt21-21-mplight-pressure/tripinfo_70.xml"/>
        <tripinfo-output.write-unfinished value="true"/>
    </output>

    <time>
        <begin value="57600"/>
        <end value="61200"/>
    </time>

    <processing>
        <time-to-teleport value="-1"/>
    </processing>

    <report>
        <xml-validation value="never"/>
        <xml-validation.routes value="never"/>
        <no-warnings value="true"/>
        <no-step-log value="true"/>
    </report>

    <emissions>
        <device.emissions.probability value="1"/>
    </emissions>

    <traci_server>
        <remote-port value="51624"/>
    </traci_server>

    <random_number>
        <random value="true"/>
    </random_number>

</configuration>
-->

<tripinfos xmlns:xsi="http://www.w3.org/2001/XMLSchema-instance" xsi:noNamespaceSchemaLocation="http://sumo.dlr.de/xsd/tripinfo_file.xsd">
    <tripinfo id="h15454c2:3" depart="57612.00" departLane="24608844_1" departPos="5.10" departSpeed="0.00" departDelay="0.50" arrival="57658.00" arrivalLane="32978638#0_1" arrivalPos="49.29" arrivalSpeed="10.74" duration="46.00" routeLength="354.79" waitingTime="0.00" waitingCount="0" stopTime="0.00" timeLoss="5.57" rerouteNo="1" devices="tripinfo_h15454c2:3 routing_h15454c2:3 emissions_h15454c2:3" vType="default_016" speedFactor="0.85" vaporized="">
        <emissions CO_abs="1990.632178" CO2_abs="97954.882709" HC_abs="11.330994" PMx_abs="1.653023" NOx_abs="40.018893" fuel_abs="42.107098" electricity_abs="0"/>
    </tripinfo>
    <tripinfo id="carIn60260:1" depart="57606.00" departLane="315358254#0_1" departPos="5.10" departSpeed="0.00" departDelay="0.90" arrival="57691.00" arrivalLane="399835085#1_1" arrivalPos="212.23" arrivalSpeed="6.76" duration="85.00" routeLength="430.98" waitingTime="19.00" waitingCount="1" stopTime="0.00" timeLoss="30.11" rerouteNo="1" devices="tripinfo_carIn60260:1 routing_carIn60260:1 emissions_carIn60260:1" vType="default_016" speedFactor="0.84" vaporized="">
        <emissions CO_abs="5445.170842" CO2_abs="163141.803967" HC_abs="28.559459" PMx_abs="3.045999" NOx_abs="68.645393" fuel_abs="70.129853" electricity_abs="0"/>
    </tripinfo>
    <tripinfo id="carIn53971:1" depart="57640.00" departLane="272042143_1" departPos="5.10" departSpeed="0.00" departDelay="0.80" arrival="57691.00" arrivalLane="24634414#1_1" arrivalPos="162.19" arrivalSpeed="8.72" duration="51.00" routeLength="493.04" waitingTime="0.00" waitingCount="0" stopTime="0.00" timeLoss="8.41" rerouteNo="1" devices="tripinfo_carIn53971:1 routing_carIn53971:1 emissions_carIn53971:1" vType="default_016" speedFactor="1.08" vaporized="">
        <emissions CO_abs="2446.370650" CO2_abs="146505.812785" HC_abs="14.564501" PMx_abs="2.529639" NOx_abs="59.724789" fuel_abs="62.976816" electricity_abs="0"/>
    </tripinfo>
    <tripinfo id="h7800c1:5" depart="57696.00" departLane="-447569998#1_1" departPos="5.10" departSpeed="0.00" departDelay="0.00" arrival="57725.00" arrivalLane="-447569998#1_2" arrivalPos="180.76" arrivalSpeed="4.98" duration="29.00" routeLength="175.66" waitingTime="3.00" waitingCount="1" stopTime="0.00" timeLoss="9.91" rerouteNo="1" devices="tripinfo_h7800c1:5 routing_h7800c1:5 emissions_h7800c1:5" vType="default_016" speedFactor="1.13" vaporized="">
        <emissions CO_abs="1296.947769" CO2_abs="56048.250858" HC_abs="7.207460" PMx_abs="1.001501" NOx_abs="23.326890" fuel_abs="24.093065" electricity_abs="0"/>
    </tripinfo>
    <tripinfo id="carIn121703:1" depart="57647.00" departLane="386687232#0_1" departPos="5.10" departSpeed="0.00" departDelay="0.30" arrival="57736.00" arrivalLane="-315358244_1" arrivalPos="33.95" arrivalSpeed="14.42" duration="89.00" routeLength="1157.39" waitingTime="0.00" waitingCount="0" stopTime="0.00" timeLoss="8.36" rerouteNo="1" devices="tripinfo_carIn121703:1 routing_carIn121703:1 emissions_carIn121703:1" vType="default_016" speedFactor="1.05" vaporized="">
        <emissions CO_abs="2363.766270" CO2_abs="224577.058652" HC_abs="15.973382" PMx_abs="3.506649" NOx_abs="87.108686" fuel_abs="96.536016" electricity_abs="0"/>
    </tripinfo>
    <tripinfo id="h12244c1:3" depart="57612.00" departLane="315358244_1" departPos="5.10" departSpeed="0.00" departDelay="0.40" arrival="57738.00" arrivalLane="386687235_1" arrivalPos="80.84" arrivalSpeed="11.68" duration="126.00" routeLength="1186.14" waitingTime="11.00" waitingCount="2" stopTime="0.00" timeLoss="30.53" rerouteNo="1" devices="tripinfo_h12244c1:3 routing_h12244c1:3 emissions_h12244c1:3" vType="default_016" speedFactor="0.91" vaporized="">
        <emissions CO_abs="4337.771501" CO2_abs="264142.841120" HC_abs="25.893392" PMx_abs="4.331333" NOx_abs="105.643954" fuel_abs="113.544476" electricity_abs="0"/>
    </tripinfo>
    <tripinfo id="h3568c1:3" depart="57656.00" departLane="266565295#5_1" departPos="5.10" departSpeed="0.00" departDelay="0.80" arrival="57739.00" arrivalLane="-24634415_1" arrivalPos="62.03" arrivalSpeed="12.23" duration="83.00" routeLength="807.40" waitingTime="0.00" waitingCount="0" stopTime="0.00" timeLoss="11.76" rerouteNo="1" devices="tripinfo_h3568c1:3 routing_h3568c1:3 emissions_h3568c1:3" vType="default_016" speedFactor="0.91" vaporized="">
        <emissions CO_abs="3125.746907" CO2_abs="196572.458862" HC_abs="18.812762" PMx_abs="3.277313" NOx_abs="79.246203" fuel_abs="84.498464" electricity_abs="0"/>
    </tripinfo>
    <tripinfo id="carIn80064:1" depart="57603.00" departLane="128361109#1_1" departPos="5.10" departSpeed="0.00" departDelay="0.40" arrival="57741.00" arrivalLane="-315358254#1_1" arrivalPos="137.16" arrivalSpeed="14.27" duration="138.00" routeLength="1587.97" waitingTime="20.00" waitingCount="3" stopTime="0.00" timeLoss="55.09" rerouteNo="1" devices="tripinfo_carIn80064:1 routing_carIn80064:1 emissions_carIn80064:1" vType="default_016" speedFactor="1.08" vaporized="">
        <emissions CO_abs="9128.679079" CO2_abs="522052.101735" HC_abs="54.096364" PMx_abs="10.555453" NOx_abs="218.265997" fuel_abs="224.407163" electricity_abs="0"/>
    </tripinfo>
    <tripinfo id="h3688c1:1" depart="57625.00" departLane="201201950#1_1" departPos="5.10" departSpeed="0.00" departDelay="0.00" arrival="57743.00" arrivalLane="32978638#0_1" arrivalPos="49.29" arrivalSpeed="11.68" duration="118.00" routeLength="1089.75" waitingTime="13.00" waitingCount="1" stopTime="0.00" timeLoss="27.11" rerouteNo="1" devices="tripinfo_h3688c1:1 routing_h3688c1:1 emissions_h3688c1:1" vType="default_016" speedFactor="0.87" vaporized="">
        <emissions CO_abs="4549.415153" CO2_abs="267284.749509" HC_abs="26.922936" PMx_abs="4.380645" NOx_abs="107.012230" fuel_abs="114.895185" electricity_abs="0"/>
    </tripinfo>
    <tripinfo id="h9563c2:5" depart="57631.00" departLane="315358244_1" departPos="5.10" departSpeed="0.00" departDelay="0.70" arrival="57743.00" arrivalLane="386687235_1" arrivalPos="80.84" arrivalSpeed="14.92" duration="112.00" routeLength="1186.14" waitingTime="9.00" waitingCount="1" stopTime="0.00" timeLoss="36.58" rerouteNo="1" devices="tripinfo_h9563c2:5 routing_h9563c2:5 emissions_h9563c2:5" vType="default_016" speedFactor="1.15" vaporized="">
        <emissions CO_abs="4853.973168" CO2_abs="297399.181074" HC_abs="29.074416" PMx_abs="5.361719" NOx_abs="121.546913" fuel_abs="127.839331" electricity_abs="0"/>
    </tripinfo>
    <tripinfo id="h4538c1:1" depart="57701.00" departLane="-10427692#1_1" departPos="5.10" departSpeed="0.00" departDelay="0.00" arrival="57744.00" arrivalLane="-128361102#1_1" arrivalPos="274.68" arrivalSpeed="14.12" duration="43.00" routeLength="440.74" waitingTime="3.00" waitingCount="1" stopTime="0.00" timeLoss="13.90" rerouteNo="1" devices="tripinfo_h4538c1:1 routing_h4538c1:1 emissions_h4538c1:1" vType="default_016" speedFactor="1.10" vaporized="">
        <emissions CO_abs="1863.581641" CO2_abs="117937.121329" HC_abs="11.208910" PMx_abs="2.051417" NOx_abs="47.617878" fuel_abs="50.696247" electricity_abs="0"/>
    </tripinfo>
    <tripinfo id="h7181c1:1" depart="57660.00" departLane="315358254#0_1" departPos="5.10" departSpeed="0.00" departDelay="0.10" arrival="57753.00" arrivalLane="306240162#0_0" arrivalPos="220.43" arrivalSpeed="13.66" duration="93.00" routeLength="932.35" waitingTime="16.00" waitingCount="2" stopTime="0.00" timeLoss="33.98" rerouteNo="1" devices="tripinfo_h7181c1:1 routing_h7181c1:1 emissions_h7181c1:1" vType="default_016" speedFactor="0.88" vaporized="">
        <emissions CO_abs="4475.639585" CO2_abs="271279.217733" HC_abs="26.806822" PMx_abs="5.139517" NOx_abs="111.940482" fuel_abs="116.611183" electricity_abs="0"/>
    </tripinfo>
    <tripinfo id="carIn22761:1" depart="57616.00" departLane="-306240162#1_0" departPos="5.10" departSpeed="0.00" departDelay="2.10" arrival="57762.00" arrivalLane="399835085#1_1" arrivalPos="212.23" arrivalSpeed="6.33" duration="146.00" routeLength="1093.26" waitingTime="36.00" waitingCount="1" stopTime="0.00" timeLoss="52.75" rerouteNo="1" devices="tripinfo_carIn22761:1 routing_carIn22761:1 emissions_carIn22761:1" vType="default_016" speedFactor="0.84" vaporized="">
        <emissions CO_abs="9581.312859" CO2_abs="340813.885102" HC_abs="51.540619" PMx_abs="6.454014" NOx_abs="141.419807" fuel_abs="146.504426" electricity_abs="0"/>
    </tripinfo>
    <tripinfo id="carIn30817:1" depart="57681.00" departLane="315358244_1" departPos="5.10" departSpeed="0.00" departDelay="0.20" arrival="57762.00" arrivalLane="447569997#1_1" arrivalPos="180.93" arrivalSpeed="6.64" duration="81.00" routeLength="718.04" waitingTime="4.00" waitingCount="1" stopTime="0.00" timeLoss="16.04" rerouteNo="1" devices="tripinfo_carIn30817:1 routing_carIn30817:1 emissions_carIn30817:1" vType="default_016" speedFactor="0.94" vaporized="">
        <emissions CO_abs="2792.299934" CO2_abs="167145.858104" HC_abs="16.580274" PMx_abs="2.656288" NOx_abs="66.493572" fuel_abs="71.849490" electricity_abs="0"/>
    </tripinfo>
    <tripinfo id="h3326c1:2" depart="57656.00" departLane="22716069#0_1" departPos="5.10" departSpeed="0.00" departDelay="0.00" arrival="57765.00" arrivalLane="24634517#13_1" arrivalPos="111.62" arrivalSpeed="13.96" duration="109.00" routeLength="1312.81" waitingTime="0.00" waitingCount="0" stopTime="0.00" timeLoss="14.60" rerouteNo="1" devices="tripinfo_h3326c1:2 routing_h3326c1:2 emissions_h3326c1:2" vType="default_016" speedFactor="1.04" vaporized="">
        <emissions CO_abs="4030.325233" CO2_abs="301840.181682" HC_abs="25.376173" PMx_abs="5.138629" NOx_abs="121.210361" fuel_abs="129.748041" electricity_abs="0"/>
    </tripinfo>
    <tripinfo id="h5979c1:5" depart="57669.00" departLane="399835085#1_1" departPos="5.10" departSpeed="0.00" departDelay="0.00" arrival="57768.00" arrivalLane="-315358254#1_1" arrivalPos="137.16" arrivalSpeed="12.79" duration="99.00" routeLength="659.33" waitingTime="2.00" waitingCount="1" stopTime="0.00" timeLoss="22.31" rerouteNo="1" devices="tripinfo_h5979c1:5 routing_h5979c1:5 emissions_h5979c1:5" vType="default_016" speedFactor="0.96" vaporized="">
        <emissions CO_abs="4639.645350" CO2_abs="198923.889011" HC_abs="25.711157" PMx_abs="3.372879" NOx_abs="81.592671" fuel_abs="85.510317" electricity_abs="0"/>
    </tripinfo>
    <tripinfo id="h317c2:1" depart="57707.00" departLane="-32978638#0_1" departPos="5.10" departSpeed="0.00" departDelay="0.10" arrival="57778.00" arrivalLane="-266565295#5_1" arrivalPos="172.76" arrivalSpeed="11.77" duration="71.00" routeLength="370.53" waitingTime="31.00" waitingCount="1" stopTime="0.00" timeLoss="39.22" rerouteNo="1" devices="tripinfo_h317c2:1 routing_h317c2:1 emissions_h317c2:1" vType="default_016" speedFactor="0.88" vaporized="">
        <emissions CO_abs="6063.321856" CO2_abs="177609.040964" HC_abs="31.765537" PMx_abs="3.584051" NOx_abs="75.808356" fuel_abs="76.348667" electricity_abs="0"/>
    </tripinfo>
    <tripinfo id="h330c1:1" depart="57736.00" departLane="-32978638#0_1" departPos="5.10" departSpeed="0.00" departDelay="0.20" arrival="57779.00" arrivalLane="-266565295#5_1" arrivalPos="172.76" arrivalSpeed="12.75" duration="43.00" routeLength="370.53" waitingTime="3.00" waitingCount="1" stopTime="0.00" timeLoss="13.65" rerouteNo="1" devices="tripinfo_h330c1:1 routing_h330c1:1 emissions_h330c1:1" vType="default_016" speedFactor="0.94" vaporized="">
        <emissions CO_abs="2185.927860" CO2_abs="120232.224181" HC_abs="12.783891" PMx_abs="2.209663" NOx_abs="49.931290" fuel_abs="51.682825" electricity_abs="0"/>
    </tripinfo>
    <tripinfo id="carIn27009:1" depart="57673.00" departLane="-447569998#1_1" departPos="5.10" departSpeed="0.00" departDelay="0.50" arrival="57794.00" arrivalLane="-26677539_1" arrivalPos="152.75" arrivalSpeed="7.80" duration="121.00" routeLength="699.63" waitingTime="22.00" waitingCount="1" stopTime="0.00" timeLoss="36.32" rerouteNo="1" devices="tripinfo_carIn27009:1 routing_carIn27009:1 emissions_carIn27009:1" vType="default_015" speedFactor="0.99" vaporized="">
        <emissions CO_abs="6699.290352" CO2_abs="231122.350020" HC_abs="35.811514" PMx_abs="4.017650" NOx_abs="95.393960" fuel_abs="99.352266" electricity_abs="0"/>
    </tripinfo>
    <tripinfo id="carIn107282:1" depart="57749.00" departLane="-447569998#1_1" departPos="5.10" departSpeed="0.00" departDelay="0.00" arrival="57800.00" arrivalLane="315358242#0_1" arrivalPos="165.37" arrivalSpeed="12.07" duration="51.00" routeLength="448.50" waitingTime="0.00" waitingCount="0" stopTime="0.00" timeLoss="5.25" rerouteNo="1" devices="tripinfo_carIn107282:1 routing_carIn107282:1 emissions_carIn107282:1" vType="default_016" speedFactor="0.91" vaporized="">
        <emissions CO_abs="1770.428092" CO2_abs="102879.687510" HC_abs="10.435656" PMx_abs="1.625938" NOx_abs="40.996966" fuel_abs="44.224013" electricity_abs="0"/>
    </tripinfo>
    <tripinfo id="h11737c1:1" depart="57665.00" departLane="272042143_1" departPos="5.10" departSpeed="0.00" departDelay="1.50" arrival="57801.00" arrivalLane="-315358254#1_1" arrivalPos="137.16" arrivalSpeed="12.28" duration="136.00" routeLength="1596.88" waitingTime="0.00" waitingCount="0" stopTime="0.00" timeLoss="12.13" rerouteNo="1" devices="tripinfo_h11737c1:1 routing_h11737c1:1 emissions_h11737c1:1" vType="default_016" speedFactor="0.94" vaporized="">
        <emissions CO_abs="3517.905871" CO2_abs="295864.005700" HC_abs="22.898736" PMx_abs="4.580319" NOx_abs="115.759256" fuel_abs="127.179493" electricity_abs="0"/>
    </tripinfo>
    <tripinfo id="carIn126288:1" depart="57674.00" departLane="272042143_1" departPos="5.10" departSpeed="0.00" departDelay="0.00" arrival="57803.00" arrivalLane="-315358254#1_1" arrivalPos="137.16" arrivalSpeed="14.06" duration="129.00" routeLength="1596.88" waitingTime="0.00" waitingCount="0" stopTime="0.00" timeLoss="21.80" rerouteNo="1" devices="tripinfo_carIn126288:1 routing_carIn126288:1 emissions_carIn126288:1" vType="default_016" speedFactor="1.09" vaporized="">
        <emissions CO_abs="4409.108434" CO2_abs="361336.770190" HC_abs="28.579007" PMx_abs="6.121251" NOx_abs="144.526900" fuel_abs="155.322797" electricity_abs="0"/>
    </tripinfo>
    <tripinfo id="carIn107084:1" depart="57601.00" departLane="124812856#0_1" departPos="5.10" departSpeed="0.00" departDelay="0.70" arrival="57812.00" arrivalLane="-128361102#1_1" arrivalPos="274.68" arrivalSpeed="11.47" duration="211.00" routeLength="2250.49" waitingTime="10.00" waitingCount="1" stopTime="0.00" timeLoss="32.72" rerouteNo="1" devices="tripinfo_carIn107084:1 routing_carIn107084:1 emissions_carIn107084:1" vType="default_016" speedFactor="0.92" vaporized="">
        <emissions CO_abs="6469.751212" CO2_abs="484922.618208" HC_abs="40.698808" PMx_abs="7.452222" NOx_abs="189.728708" fuel_abs="208.448488" electricity_abs="0"/>
    </tripinfo>
    <tripinfo id="carIn77943:1" depart="57608.00" departLane="124812856#0_1" departPos="5.10" departSpeed="0.00" departDelay="2.50" arrival="57814.00" arrivalLane="-128361102#1_1" arrivalPos="274.68" arrivalSpeed="12.16" duration="206.00" routeLength="2250.49" waitingTime="5.00" waitingCount="1" stopTime="0.00" timeLoss="31.81" rerouteNo="1" devices="tripinfo_carIn77943:1 routing_carIn77943:1 emissions_carIn77943:1" vType="default_016" speedFactor="0.95" vaporized="">
        <emissions CO_abs="6886.107076" CO2_abs="510472.662340" HC_abs="43.314339" PMx_abs="8.582927" NOx_abs="205.116531" fuel_abs="219.430283" electricity_abs="0"/>
    </tripinfo>
    <tripinfo id="carIn129809:1" depart="57729.00" departLane="-447569998#1_1" departPos="5.10" departSpeed="0.00" departDelay="1.00" arrival="57815.00" arrivalLane="-315358244_1" arrivalPos="33.95" arrivalSpeed="11.92" duration="86.00" routeLength="706.49" waitingTime="3.00" waitingCount="1" stopTime="0.00" timeLoss="16.50" rerouteNo="1" devices="tripinfo_carIn129809:1 routing_carIn129809:1 emissions_carIn129809:1" vType="default_015" speedFactor="0.87" vaporized="">
        <emissions CO_abs="3242.834691" CO2_abs="179069.252682" HC_abs="18.900408" PMx_abs="2.874140" NOx_abs="71.744990" fuel_abs="76.975031" electricity_abs="0"/>
    </tripinfo>
    <tripinfo id="randUni10474:1" depart="57605.00" departLane="124812856#0_1" departPos="5.10" departSpeed="0.00" departDelay="0.20" arrival="57817.00" arrivalLane="306240162#0_0" arrivalPos="220.43" arrivalSpeed="18.07" duration="212.00" routeLength="3031.29" waitingTime="4.00" waitingCount="1" stopTime="0.00" timeLoss="41.18" rerouteNo="1" devices="tripinfo_randUni10474:1 routing_randUni10474:1 emissions_randUni10474:1" vType="random_016" speedFactor="1.15" vaporized="">
        <emissions CO_abs="10743.332624" CO2_abs="795276.993174" HC_abs="67.598710" PMx_abs="15.283342" NOx_abs="324.620488" fuel_abs="341.853209" electricity_abs="0"/>
    </tripinfo>
    <tripinfo id="carIn50326:1" depart="57651.00" departLane="128361102#0_1" departPos="5.10" departSpeed="0.00" departDelay="0.30" arrival="57819.00" arrivalLane="18809673#0_1" arrivalPos="473.56" arrivalSpeed="15.83" duration="168.00" routeLength="1591.07" waitingTime="20.00" waitingCount="3" stopTime="0.00" timeLoss="54.46" rerouteNo="1" devices="tripinfo_carIn50326:1 routing_carIn50326:1 emissions_carIn50326:1" vType="default_016" speedFactor="1.14" vaporized="">
        <emissions CO_abs="7328.027452" CO2_abs="422513.823975" HC_abs="43.226135" PMx_abs="7.554533" NOx_abs="172.330377" fuel_abs="181.621281" electricity_abs="0"/>
    </tripinfo>
    <tripinfo id="randUni15030:1" depart="57735.00" departLane="386687232#0_1" departPos="5.10" departSpeed="0.00" departDelay="0.10" arrival="57821.00" arrivalLane="26677539_1" arrivalPos="151.98" arrivalSpeed="9.28" duration="86.00" routeLength="919.89" waitingTime="0.00" waitingCount="0" stopTime="0.00" timeLoss="10.80" rerouteNo="1" devices="tripinfo_randUni15030:1 routing_randUni15030:1 emissions_randUni15030:1" vType="random_016" speedFactor="1.11" vaporized="">
        <emissions CO_abs="3270.649459" CO2_abs="217285.339119" HC_abs="19.939337" PMx_abs="3.684605" NOx_abs="87.494549" fuel_abs="93.401876" electricity_abs="0"/>
    </tripinfo>
    <tripinfo id="carIn86816:1" depart="57617.00" departLane="128361102#0_1" departPos="5.10" departSpeed="0.00" departDelay="0.80" arrival="57825.00" arrivalLane="201956811#0_1" arrivalPos="40.40" arrivalSpeed="14.71" duration="208.00" routeLength="2067.33" waitingTime="44.00" waitingCount="2" stopTime="0.00" timeLoss="74.75" rerouteNo="1" devices="tripinfo_carIn86816:1 routing_carIn86816:1 emissions_carIn86816:1" vType="default_016" speedFactor="1.14" vaporized="">
        <emissions CO_abs="11963.802556" CO2_abs="569929.885235" HC_abs="67.839863" PMx_abs="10.941960" NOx_abs="236.836821" fuel_abs="244.990046" electricity_abs="0"/>
    </tripinfo>
    <tripinfo id="carIn102915:1" depart="57643.00" departLane="128361102#0_1" departPos="5.10" departSpeed="0.00" departDelay="0.40" arrival="57827.00" arrivalLane="201956811#0_1" arrivalPos="40.40" arrivalSpeed="14.85" duration="184.00" routeLength="2067.33" waitingTime="19.00" waitingCount="2" stopTime="0.00" timeLoss="50.64" rerouteNo="1" devices="tripinfo_carIn102915:1 routing_carIn102915:1 emissions_carIn102915:1" vType="default_016" speedFactor="1.14" vaporized="">
        <emissions CO_abs="7776.571749" CO2_abs="512321.548164" HC_abs="47.351496" PMx_abs="9.130794" NOx_abs="207.396001" fuel_abs="220.225148" electricity_abs="0"/>
    </tripinfo>
    <tripinfo id="carIn82220:1" depart="57619.00" departLane="-306240162#1_0" departPos="5.10" departSpeed="0.00" departDelay="3.50" arrival="57834.00" arrivalLane="386687235_2" arrivalPos="80.84" arrivalSpeed="15.92" duration="215.00" routeLength="2257.41" waitingTime="25.00" waitingCount="3" stopTime="0.00" timeLoss="89.91" rerouteNo="1" devices="tripinfo_carIn82220:1 routing_carIn82220:1 emissions_carIn82220:1" vType="default_016" speedFactor="1.19" vaporized="">
        <emissions CO_abs="10419.347840" CO2_abs="612672.410106" HC_abs="61.829602" PMx_abs="11.271601" NOx_abs="250.717997" fuel_abs="263.362087" electricity_abs="0"/>
    </tripinfo>
    <tripinfo id="randUni33724:1" depart="57646.00" departLane="128361102#0_1" departPos="5.10" departSpeed="0.00" departDelay="1.20" arrival="57834.00" arrivalLane="201956811#0_1" arrivalPos="40.40" arrivalSpeed="11.93" duration="188.00" routeLength="2067.33" waitingTime="3.00" waitingCount="1" stopTime="0.00" timeLoss="25.95" rerouteNo="1" devices="tripinfo_randUni33724:1 routing_randUni33724:1 emissions_randUni33724:1" vType="random_016" speedFactor="0.94" vaporized="">
        <emissions CO_abs="5462.881623" CO2_abs="416991.863762" HC_abs="34.577276" PMx_abs="6.598193" NOx_abs="164.514977" fuel_abs="179.247432" electricity_abs="0"/>
    </tripinfo>
    <tripinfo id="carIn81860:1" depart="57712.00" departLane="128361102#0_1" departPos="5.10" departSpeed="0.00" departDelay="0.60" arrival="57834.00" arrivalLane="-24634517#17_1" arrivalPos="6.43" arrivalSpeed="8.30" duration="122.00" routeLength="1229.64" waitingTime="16.00" waitingCount="2" stopTime="0.00" timeLoss="41.82" rerouteNo="1" devices="tripinfo_carIn81860:1 routing_carIn81860:1 emissions_carIn81860:1" vType="default_016" speedFactor="1.13" vaporized="">
        <emissions CO_abs="4903.656067" CO2_abs="301966.337609" HC_abs="29.344320" PMx_abs="5.380327" NOx_abs="122.399198" fuel_abs="129.802686" electricity_abs="0"/>
    </tripinfo>
    <tripinfo id="S5R_frequency1.2" depart="57615.00" departLane="315358250#0_1" departPos="12.10" departSpeed="0.00" departDelay="3.40" arrival="57835.00" arrivalLane="386687235_1" arrivalPos="80.84" arrivalSpeed="12.75" duration="220.00" routeLength="1115.62" waitingTime="93.00" waitingCount="4" stopTime="0.00" timeLoss="138.13" rerouteNo="1" devices="tripinfo_S5R_frequency1.2 routing_S5R_frequency1.2 emissions_S5R_frequency1.2" vType="bus" speedFactor="1.00" vaporized="">
        <emissions CO_abs="4263.675139" CO2_abs="2073529.221556" HC_abs="920.851246" PMx_abs="442.658513" NOx_abs="17727.286935" fuel_abs="884.122176" electricity_abs="0"/>
    </tripinfo>
    <tripinfo id="carIn100288:1" depart="57664.00" departLane="128361102#0_1" departPos="5.10" departSpeed="0.00" departDelay="0.60" arrival="57835.00" arrivalLane="201956811#0_1" arrivalPos="40.40" arrivalSpeed="16.50" duration="171.00" routeLength="2067.33" waitingTime="9.00" waitingCount="1" stopTime="0.00" timeLoss="45.87" rerouteNo="1" devices="tripinfo_carIn100288:1 routing_carIn100288:1 emissions_carIn100288:1" vType="default_016" speedFactor="1.20" vaporized="">
        <emissions CO_abs="6720.480875" CO2_abs="481480.626632" HC_abs="41.915955" PMx_abs="8.587843" NOx_abs="194.985832" fuel_abs="206.967451" electricity_abs="0"/>
    </tripinfo>
    <tripinfo id="carIn12152:1" depart="57647.00" departLane="24599188#0.94_1" departPos="5.10" departSpeed="0.00" departDelay="0.50" arrival="57836.00" arrivalLane="-315358254#1_1" arrivalPos="137.16" arrivalSpeed="14.90" duration="189.00" routeLength="2034.31" waitingTime="16.00" waitingCount="2" stopTime="0.00" timeLoss="46.02" rerouteNo="1" devices="tripinfo_carIn12152:1 routing_carIn12152:1 emissions_carIn12152:1" vType="default_016" speedFactor="1.11" vaporized="">
        <emissions CO_abs="7451.392529" CO2_abs="480421.181710" HC_abs="45.035751" PMx_abs="8.259420" NOx_abs="192.786458" fuel_abs="206.513110" electricity_abs="0"/>
    </tripinfo>
    <tripinfo id="carIn462:1" depart="57622.00" departLane="-306240162#1_0" departPos="5.10" departSpeed="0.00" departDelay="4.80" arrival="57837.00" arrivalLane="386687235_2" arrivalPos="80.84" arrivalSpeed="13.21" duration="215.00" routeLength="2257.41" waitingTime="18.00" waitingCount="3" stopTime="0.00" timeLoss="65.98" rerouteNo="1" devices="tripinfo_carIn462:1 routing_carIn462:1 emissions_carIn462:1" vType="default_016" speedFactor="1.00" vaporized="">
        <emissions CO_abs="8815.025702" CO2_abs="576571.096377" HC_abs="53.724017" PMx_abs="10.432462" NOx_abs="235.450031" fuel_abs="247.843017" electricity_abs="0"/>
    </tripinfo>
    <tripinfo id="carIn48184:1" depart="57613.00" departLane="-306240162#1_0" departPos="5.10" departSpeed="0.00" departDelay="0.70" arrival="57838.00" arrivalLane="386687235_1" arrivalPos="80.84" arrivalSpeed="12.03" duration="225.00" routeLength="2257.41" waitingTime="31.00" waitingCount="4" stopTime="0.00" timeLoss="60.41" rerouteNo="1" devices="tripinfo_carIn48184:1 routing_carIn48184:1 emissions_carIn48184:1" vType="default_016" speedFactor="0.90" vaporized="">
        <emissions CO_abs="9446.907579" CO2_abs="540413.295533" HC_abs="55.685963" PMx_abs="9.399412" NOx_abs="217.662287" fuel_abs="232.301999" electricity_abs="0"/>
    </tripinfo>
    <tripinfo id="carIn81046:1" depart="57611.00" departLane="124812856#0_1" departPos="5.10" departSpeed="0.00" departDelay="2.50" arrival="57839.00" arrivalLane="-128361102#1_1" arrivalPos="274.68" arrivalSpeed="12.03" duration="228.00" routeLength="2250.49" waitingTime="21.00" waitingCount="2" stopTime="0.00" timeLoss="46.79" rerouteNo="1" devices="tripinfo_carIn81046:1 routing_carIn81046:1 emissions_carIn81046:1" vType="default_016" speedFactor="0.91" vaporized="">
        <emissions CO_abs="8317.713285" CO2_abs="516960.955822" HC_abs="49.901587" PMx_abs="8.452934" NOx_abs="206.149154" fuel_abs="222.220841" electricity_abs="0"/>
    </tripinfo>
    <tripinfo id="carIn77438:1" depart="57614.00" departLane="124812856#0_1" departPos="5.10" departSpeed="0.00" departDelay="1.10" arrival="57840.00" arrivalLane="-128361102#1_1" arrivalPos="274.68" arrivalSpeed="12.48" duration="226.00" routeLength="2250.49" waitingTime="16.00" waitingCount="2" stopTime="0.00" timeLoss="50.47" rerouteNo="1" devices="tripinfo_carIn77438:1 routing_carIn77438:1 emissions_carIn77438:1" vType="default_016" speedFactor="0.93" vaporized="">
        <emissions CO_abs="8333.547249" CO2_abs="525247.525527" HC_abs="50.221570" PMx_abs="8.872543" NOx_abs="211.508535" fuel_abs="225.782349" electricity_abs="0"/>
    </tripinfo>
    <tripinfo id="h19804c1:3" depart="57617.00" departLane="124812856#0_1" departPos="5.10" departSpeed="0.00" departDelay="1.50" arrival="57842.00" arrivalLane="-128361102#1_1" arrivalPos="274.68" arrivalSpeed="12.29" duration="225.00" routeLength="2250.49" waitingTime="16.00" waitingCount="2" stopTime="0.00" timeLoss="56.53" rerouteNo="1" devices="tripinfo_h19804c1:3 routing_h19804c1:3 emissions_h19804c1:3" vType="default_016" speedFactor="0.97" vaporized="">
        <emissions CO_abs="8960.786347" CO2_abs="566440.147856" HC_abs="54.068609" PMx_abs="9.713859" NOx_abs="229.077177" fuel_abs="243.489117" electricity_abs="0"/>
    </tripinfo>
    <tripinfo id="carIn29531:1" depart="57667.00" departLane="128361102#0_1" departPos="5.10" departSpeed="0.00" departDelay="1.60" arrival="57845.00" arrivalLane="201956811#0_1" arrivalPos="40.40" arrivalSpeed="12.83" duration="178.00" routeLength="2067.33" waitingTime="3.00" waitingCount="1" stopTime="0.00" timeLoss="26.14" rerouteNo="1" devices="tripinfo_carIn29531:1 routing_carIn29531:1 emissions_carIn29531:1" vType="default_016" speedFactor="1.00" vaporized="">
        <emissions CO_abs="5194.748793" CO2_abs="416643.473501" HC_abs="33.379979" PMx_abs="6.716569" NOx_abs="164.570504" fuel_abs="179.097321" electricity_abs="0"/>
    </tripinfo>
    <tripinfo id="carIn12365:1" depart="57713.00" departLane="315358244_1" departPos="5.10" departSpeed="0.00" departDelay="0.50" arrival="57849.00" arrivalLane="447569997#1_1" arrivalPos="180.93" arrivalSpeed="7.42" duration="136.00" routeLength="718.04" waitingTime="53.00" waitingCount="2" stopTime="0.00" timeLoss="66.86" rerouteNo="1" devices="tripinfo_carIn12365:1 routing_carIn12365:1 emissions_carIn12365:1" vType="default_016" speedFactor="0.90" vaporized="">
        <emissions CO_abs="10281.429590" CO2_abs="273865.252393" HC_abs="53.166060" PMx_abs="5.370641" NOx_abs="115.921426" fuel_abs="117.727285" electricity_abs="0"/>
    </tripinfo>
    <tripinfo id="h16072c2:3" depart="57663.00" departLane="315358254#0_1" departPos="5.10" departSpeed="0.00" departDelay="2.50" arrival="57852.00" arrivalLane="386687235_2" arrivalPos="80.84" arrivalSpeed="15.05" duration="189.00" routeLength="1611.92" waitingTime="32.00" waitingCount="5" stopTime="0.00" timeLoss="84.06" rerouteNo="1" devices="tripinfo_h16072c2:3 routing_h16072c2:3 emissions_h16072c2:3" vType="default_016" speedFactor="1.12" vaporized="">