<?xml version="1.0" encoding="UTF-8"?>

<!-- generated on Thu Nov  4 13:31:16 2021 by Eclipse SUMO sumo Version 1.9.0
<configuration xmlns:xsi="http://www.w3.org/2001/XMLSchema-instance" xsi:noNamespaceSchemaLocation="http://sumo.dlr.de/xsd/sumoConfiguration.xsd">

    <input>
        <net-file value="/mainfs/home/bk2g18/RESCO/environments/ingolstadt21/ingolstadt21.net.xml"/>
        <route-files value="/mainfs/home/bk2g18/RESCO/environments/ingolstadt21/ingolstadt21.rou.xml"/>
    </input>

    <output>
        <tripinfo-output value="/mainfs/home/bk2g18/RESCO/logs/MPLight-tr0-ingolstadt21-21-mplight-pressure/tripinfo_33.xml"/>
        <tripinfo-output.write-unfinished value="true"/>
    </output>

    <time>
        <begin value="57600"/>
        <end value="61200"/>
    </time>

    <processing>
        <time-to-teleport value="-1"/>
    </processing>

    <report>
        <xml-validation value="never"/>
        <xml-validation.routes value="never"/>
        <no-warnings value="true"/>
        <no-step-log value="true"/>
    </report>

    <emissions>
        <device.emissions.probability value="1"/>
    </emissions>

    <traci_server>
        <remote-port value="44865"/>
    </traci_server>

    <random_number>
        <random value="true"/>
    </random_number>

</configuration>
-->

<tripinfos xmlns:xsi="http://www.w3.org/2001/XMLSchema-instance" xsi:noNamespaceSchemaLocation="http://sumo.dlr.de/xsd/tripinfo_file.xsd">
    <tripinfo id="carIn60260:1" depart="57606.00" departLane="315358254#0_1" departPos="5.10" departSpeed="0.00" departDelay="0.90" arrival="57655.00" arrivalLane="399835085#1_1" arrivalPos="212.23" arrivalSpeed="7.95" duration="49.00" routeLength="430.98" waitingTime="0.00" waitingCount="0" stopTime="0.00" timeLoss="6.62" rerouteNo="1" devices="tripinfo_carIn60260:1 routing_carIn60260:1 emissions_carIn60260:1" vType="default_016" speedFactor="1.10" vaporized="">
        <emissions CO_abs="2134.860918" CO2_abs="120169.260931" HC_abs="12.432855" PMx_abs="2.003807" NOx_abs="48.630299" fuel_abs="51.656010" electricity_abs="0"/>
    </tripinfo>
    <tripinfo id="h15454c2:3" depart="57612.00" departLane="24608844_1" departPos="5.10" departSpeed="0.00" departDelay="0.50" arrival="57657.00" arrivalLane="32978638#0_1" arrivalPos="49.29" arrivalSpeed="13.06" duration="45.00" routeLength="354.79" waitingTime="1.00" waitingCount="1" stopTime="0.00" timeLoss="9.38" rerouteNo="1" devices="tripinfo_h15454c2:3 routing_h15454c2:3 emissions_h15454c2:3" vType="default_016" speedFactor="0.96" vaporized="">
        <emissions CO_abs="2512.129876" CO2_abs="125777.525402" HC_abs="14.373213" PMx_abs="2.227910" NOx_abs="51.927710" fuel_abs="54.066815" electricity_abs="0"/>
    </tripinfo>
    <tripinfo id="carIn53971:1" depart="57640.00" departLane="272042143_1" departPos="5.10" departSpeed="0.00" departDelay="0.80" arrival="57696.00" arrivalLane="24634414#1_1" arrivalPos="162.19" arrivalSpeed="7.24" duration="56.00" routeLength="493.04" waitingTime="0.00" waitingCount="0" stopTime="0.00" timeLoss="7.25" rerouteNo="1" devices="tripinfo_carIn53971:1 routing_carIn53971:1 emissions_carIn53971:1" vType="default_016" speedFactor="0.94" vaporized="">
        <emissions CO_abs="2611.399150" CO2_abs="144368.514414" HC_abs="15.232641" PMx_abs="2.383422" NOx_abs="58.308823" fuel_abs="62.058401" electricity_abs="0"/>
    </tripinfo>
    <tripinfo id="carIn22761:1" depart="57616.00" departLane="-306240162#1_0" departPos="5.10" departSpeed="0.00" departDelay="2.10" arrival="57719.00" arrivalLane="399835085#1_1" arrivalPos="212.23" arrivalSpeed="8.63" duration="103.00" routeLength="1093.26" waitingTime="6.00" waitingCount="1" stopTime="0.00" timeLoss="28.33" rerouteNo="1" devices="tripinfo_carIn22761:1 routing_carIn22761:1 emissions_carIn22761:1" vType="default_016" speedFactor="1.05" vaporized="">
        <emissions CO_abs="5710.570692" CO2_abs="354548.195558" HC_abs="34.432507" PMx_abs="6.782615" NOx_abs="146.552169" fuel_abs="152.404710" electricity_abs="0"/>
    </tripinfo>
    <tripinfo id="carIn80064:1" depart="57603.00" departLane="128361109#1_1" departPos="5.10" departSpeed="0.00" departDelay="0.40" arrival="57725.00" arrivalLane="-315358254#1_1" arrivalPos="137.16" arrivalSpeed="12.70" duration="122.00" routeLength="1587.97" waitingTime="0.00" waitingCount="0" stopTime="0.00" timeLoss="27.11" rerouteNo="1" devices="tripinfo_carIn80064:1 routing_carIn80064:1 emissions_carIn80064:1" vType="default_016" speedFactor="0.95" vaporized="">
        <emissions CO_abs="6690.490326" CO2_abs="470678.560796" HC_abs="41.691560" PMx_abs="9.012761" NOx_abs="193.774626" fuel_abs="202.323368" electricity_abs="0"/>
    </tripinfo>
    <tripinfo id="h7800c1:5" depart="57696.00" departLane="-447569998#1_1" departPos="5.10" departSpeed="0.00" departDelay="0.00" arrival="57725.00" arrivalLane="-447569998#1_2" arrivalPos="180.76" arrivalSpeed="6.42" duration="29.00" routeLength="175.66" waitingTime="0.00" waitingCount="0" stopTime="0.00" timeLoss="4.66" rerouteNo="1" devices="tripinfo_h7800c1:5 routing_h7800c1:5 emissions_h7800c1:5" vType="default_016" speedFactor="0.90" vaporized="">
        <emissions CO_abs="1294.648430" CO2_abs="50117.862228" HC_abs="7.050526" PMx_abs="0.878524" NOx_abs="20.835569" fuel_abs="21.543943" electricity_abs="0"/>
    </tripinfo>
    <tripinfo id="h317c2:1" depart="57707.00" departLane="-32978638#0_1" departPos="5.10" departSpeed="0.00" departDelay="0.10" arrival="57746.00" arrivalLane="-266565295#5_1" arrivalPos="172.76" arrivalSpeed="12.31" duration="39.00" routeLength="370.53" waitingTime="1.00" waitingCount="1" stopTime="0.00" timeLoss="10.12" rerouteNo="1" devices="tripinfo_h317c2:1 routing_h317c2:1 emissions_h317c2:1" vType="default_016" speedFactor="0.95" vaporized="">
        <emissions CO_abs="2054.273509" CO2_abs="118036.308733" HC_abs="12.122170" PMx_abs="2.093029" NOx_abs="48.435869" fuel_abs="50.738940" electricity_abs="0"/>
    </tripinfo>
    <tripinfo id="h3568c1:3" depart="57656.00" departLane="266565295#5_1" departPos="5.10" departSpeed="0.00" departDelay="0.80" arrival="57747.00" arrivalLane="-24634415_1" arrivalPos="62.03" arrivalSpeed="12.87" duration="91.00" routeLength="807.40" waitingTime="7.00" waitingCount="1" stopTime="0.00" timeLoss="25.35" rerouteNo="1" devices="tripinfo_h3568c1:3 routing_h3568c1:3 emissions_h3568c1:3" vType="default_016" speedFactor="0.99" vaporized="">
        <emissions CO_abs="4316.114453" CO2_abs="242735.760074" HC_abs="25.362211" PMx_abs="4.415600" NOx_abs="100.422510" fuel_abs="104.341988" electricity_abs="0"/>
    </tripinfo>
    <tripinfo id="h5979c1:5" depart="57669.00" departLane="399835085#1_1" departPos="5.10" departSpeed="0.00" departDelay="0.00" arrival="57756.00" arrivalLane="-315358254#1_1" arrivalPos="137.16" arrivalSpeed="14.19" duration="87.00" routeLength="659.33" waitingTime="0.00" waitingCount="0" stopTime="0.00" timeLoss="17.84" rerouteNo="1" devices="tripinfo_h5979c1:5 routing_h5979c1:5 emissions_h5979c1:5" vType="default_016" speedFactor="1.05" vaporized="">
        <emissions CO_abs="3964.512675" CO2_abs="189993.479029" HC_abs="22.454832" PMx_abs="3.254651" NOx_abs="77.944190" fuel_abs="81.671022" electricity_abs="0"/>
    </tripinfo>
    <tripinfo id="h12244c1:3" depart="57612.00" departLane="315358244_1" departPos="5.10" departSpeed="0.00" departDelay="0.40" arrival="57762.00" arrivalLane="386687235_1" arrivalPos="80.84" arrivalSpeed="12.14" duration="150.00" routeLength="1186.14" waitingTime="40.00" waitingCount="2" stopTime="0.00" timeLoss="58.69" rerouteNo="1" devices="tripinfo_h12244c1:3 routing_h12244c1:3 emissions_h12244c1:3" vType="default_016" speedFactor="0.94" vaporized="">
        <emissions CO_abs="8928.181701" CO2_abs="340944.464204" HC_abs="48.616260" PMx_abs="6.317087" NOx_abs="141.094888" fuel_abs="146.560166" electricity_abs="0"/>
    </tripinfo>
    <tripinfo id="carIn121703:1" depart="57647.00" departLane="386687232#0_1" departPos="5.10" departSpeed="0.00" departDelay="0.30" arrival="57763.00" arrivalLane="-315358244_1" arrivalPos="33.95" arrivalSpeed="14.88" duration="116.00" routeLength="1157.39" waitingTime="12.00" waitingCount="3" stopTime="0.00" timeLoss="37.54" rerouteNo="1" devices="tripinfo_carIn121703:1 routing_carIn121703:1 emissions_carIn121703:1" vType="default_016" speedFactor="1.08" vaporized="">
        <emissions CO_abs="5631.089287" CO2_abs="328788.490317" HC_abs="33.286365" PMx_abs="5.911660" NOx_abs="134.038140" fuel_abs="141.332533" electricity_abs="0"/>
    </tripinfo>
    <tripinfo id="h3326c1:2" depart="57656.00" departLane="22716069#0_1" departPos="5.10" departSpeed="0.00" departDelay="0.00" arrival="57763.00" arrivalLane="24634517#13_1" arrivalPos="111.62" arrivalSpeed="13.69" duration="107.00" routeLength="1312.81" waitingTime="0.00" waitingCount="0" stopTime="0.00" timeLoss="15.43" rerouteNo="1" devices="tripinfo_h3326c1:2 routing_h3326c1:2 emissions_h3326c1:2" vType="default_016" speedFactor="1.06" vaporized="">
        <emissions CO_abs="4130.216806" CO2_abs="322997.832175" HC_abs="26.340497" PMx_abs="5.539520" NOx_abs="129.654951" fuel_abs="138.842615" electricity_abs="0"/>
    </tripinfo>
    <tripinfo id="h3688c1:1" depart="57625.00" departLane="201201950#1_1" departPos="5.10" departSpeed="0.00" departDelay="0.00" arrival="57764.00" arrivalLane="32978638#0_1" arrivalPos="49.29" arrivalSpeed="14.08" duration="139.00" routeLength="1089.75" waitingTime="47.00" waitingCount="2" stopTime="0.00" timeLoss="67.33" rerouteNo="1" devices="tripinfo_h3688c1:1 routing_h3688c1:1 emissions_h3688c1:1" vType="default_016" speedFactor="1.11" vaporized="">
        <emissions CO_abs="11618.701246" CO2_abs="423339.247571" HC_abs="62.732042" PMx_abs="8.479489" NOx_abs="178.721819" fuel_abs="181.978329" electricity_abs="0"/>
    </tripinfo>
    <tripinfo id="carIn27009:1" depart="57673.00" departLane="-447569998#1_1" departPos="5.10" departSpeed="0.00" departDelay="0.50" arrival="57767.00" arrivalLane="-26677539_1" arrivalPos="152.75" arrivalSpeed="8.35" duration="94.00" routeLength="699.63" waitingTime="0.00" waitingCount="0" stopTime="0.00" timeLoss="11.90" rerouteNo="1" devices="tripinfo_carIn27009:1 routing_carIn27009:1 emissions_carIn27009:1" vType="default_015" speedFactor="1.02" vaporized="">
        <emissions CO_abs="3618.697497" CO2_abs="175406.994277" HC_abs="20.503397" PMx_abs="2.813405" NOx_abs="70.930106" fuel_abs="75.401078" electricity_abs="0"/>
    </tripinfo>
    <tripinfo id="carIn30817:1" depart="57681.00" departLane="315358244_1" departPos="5.10" departSpeed="0.00" departDelay="0.20" arrival="57769.00" arrivalLane="447569997#1_1" arrivalPos="180.93" arrivalSpeed="7.49" duration="88.00" routeLength="718.04" waitingTime="10.00" waitingCount="1" stopTime="0.00" timeLoss="24.58" rerouteNo="1" devices="tripinfo_carIn30817:1 routing_carIn30817:1 emissions_carIn30817:1" vType="default_016" speedFactor="0.97" vaporized="">
        <emissions CO_abs="4192.877263" CO2_abs="205047.535920" HC_abs="23.867722" PMx_abs="3.614813" NOx_abs="84.120245" fuel_abs="88.142030" electricity_abs="0"/>
    </tripinfo>
    <tripinfo id="h7181c1:1" depart="57660.00" departLane="315358254#0_1" departPos="5.10" departSpeed="0.00" departDelay="0.10" arrival="57774.00" arrivalLane="306240162#0_0" arrivalPos="220.43" arrivalSpeed="13.16" duration="114.00" routeLength="932.35" waitingTime="33.00" waitingCount="2" stopTime="0.00" timeLoss="51.04" rerouteNo="1" devices="tripinfo_h7181c1:1 routing_h7181c1:1 emissions_h7181c1:1" vType="default_016" speedFactor="0.82" vaporized="">
        <emissions CO_abs="6825.181364" CO2_abs="296569.330302" HC_abs="37.815098" PMx_abs="5.511331" NOx_abs="121.615992" fuel_abs="127.484091" electricity_abs="0"/>
    </tripinfo>
    <tripinfo id="h330c1:1" depart="57736.00" departLane="-32978638#0_1" departPos="5.10" departSpeed="0.00" departDelay="0.20" arrival="57774.00" arrivalLane="-266565295#5_1" arrivalPos="172.76" arrivalSpeed="13.75" duration="38.00" routeLength="370.53" waitingTime="3.00" waitingCount="1" stopTime="0.00" timeLoss="11.77" rerouteNo="1" devices="tripinfo_h330c1:1 routing_h330c1:1 emissions_h330c1:1" vType="default_016" speedFactor="1.05" vaporized="">
        <emissions CO_abs="2145.097959" CO2_abs="123887.906780" HC_abs="12.688654" PMx_abs="2.316205" NOx_abs="51.475240" fuel_abs="53.254121" electricity_abs="0"/>
    </tripinfo>
    <tripinfo id="carIn28951:1" depart="57606.00" departLane="10425609#0_1" departPos="5.10" departSpeed="0.00" departDelay="0.20" arrival="57783.00" arrivalLane="-128361102#1_1" arrivalPos="274.68" arrivalSpeed="14.32" duration="177.00" routeLength="2113.04" waitingTime="11.00" waitingCount="1" stopTime="0.00" timeLoss="35.88" rerouteNo="1" devices="tripinfo_carIn28951:1 routing_carIn28951:1 emissions_carIn28951:1" vType="default_016" speedFactor="1.10" vaporized="">
        <emissions CO_abs="6717.426577" CO2_abs="512080.531577" HC_abs="42.459783" PMx_abs="8.754674" NOx_abs="204.366184" fuel_abs="220.121260" electricity_abs="0"/>
    </tripinfo>
    <tripinfo id="carIn48184:1" depart="57613.00" departLane="-306240162#1_0" departPos="5.10" departSpeed="0.00" departDelay="0.70" arrival="57783.00" arrivalLane="386687235_1" arrivalPos="80.84" arrivalSpeed="14.02" duration="170.00" routeLength="2257.41" waitingTime="6.00" waitingCount="1" stopTime="0.00" timeLoss="32.43" rerouteNo="1" devices="tripinfo_carIn48184:1 routing_carIn48184:1 emissions_carIn48184:1" vType="default_016" speedFactor="1.08" vaporized="">
        <emissions CO_abs="6711.359037" CO2_abs="506687.986196" HC_abs="42.383635" PMx_abs="9.127901" NOx_abs="203.024270" fuel_abs="217.802802" electricity_abs="0"/>
    </tripinfo>
    <tripinfo id="carIn12858:1" depart="57661.00" departLane="128361109#1_1" departPos="5.10" departSpeed="0.00" departDelay="0.90" arrival="57796.00" arrivalLane="399835085#1_1" arrivalPos="212.23" arrivalSpeed="9.35" duration="135.00" routeLength="1738.12" waitingTime="3.00" waitingCount="1" stopTime="0.00" timeLoss="33.67" rerouteNo="1" devices="tripinfo_carIn12858:1 routing_carIn12858:1 emissions_carIn12858:1" vType="default_016" speedFactor="1.13" vaporized="">
        <emissions CO_abs="7895.789775" CO2_abs="512106.293347" HC_abs="48.247199" PMx_abs="10.170778" NOx_abs="212.750932" fuel_abs="220.131292" electricity_abs="0"/>
    </tripinfo>
    <tripinfo id="carIn12365:1" depart="57713.00" departLane="315358244_1" departPos="5.10" departSpeed="0.00" departDelay="0.50" arrival="57806.00" arrivalLane="447569997#1_1" arrivalPos="180.93" arrivalSpeed="6.72" duration="93.00" routeLength="718.04" waitingTime="8.00" waitingCount="1" stopTime="0.00" timeLoss="26.64" rerouteNo="1" devices="tripinfo_carIn12365:1 routing_carIn12365:1 emissions_carIn12365:1" vType="default_016" speedFactor="0.93" vaporized="">
        <emissions CO_abs="3988.811085" CO2_abs="198444.686990" HC_abs="22.770109" PMx_abs="3.379781" NOx_abs="80.758455" fuel_abs="85.303831" electricity_abs="0"/>
    </tripinfo>
    <tripinfo id="carIn129809:1" depart="57729.00" departLane="-447569998#1_1" departPos="5.10" departSpeed="0.00" departDelay="1.00" arrival="57814.00" arrivalLane="-315358244_1" arrivalPos="33.95" arrivalSpeed="12.76" duration="85.00" routeLength="706.49" waitingTime="8.00" waitingCount="2" stopTime="0.00" timeLoss="22.52" rerouteNo="1" devices="tripinfo_carIn129809:1 routing_carIn129809:1 emissions_carIn129809:1" vType="default_015" speedFactor="0.97" vaporized="">
        <emissions CO_abs="3536.942623" CO2_abs="185722.190407" HC_abs="20.455193" PMx_abs="3.320070" NOx_abs="76.479756" fuel_abs="79.834518" electricity_abs="0"/>
    </tripinfo>
    <tripinfo id="h11737c1:1" depart="57665.00" departLane="272042143_1" departPos="5.10" departSpeed="0.00" departDelay="1.50" arrival="57815.00" arrivalLane="-315358254#1_1" arrivalPos="137.16" arrivalSpeed="11.90" duration="150.00" routeLength="1596.88" waitingTime="4.00" waitingCount="1" stopTime="0.00" timeLoss="26.74" rerouteNo="1" devices="tripinfo_h11737c1:1 routing_h11737c1:1 emissions_h11737c1:1" vType="default_016" speedFactor="0.95" vaporized="">
        <emissions CO_abs="4532.780949" CO2_abs="341113.610541" HC_abs="28.547052" PMx_abs="5.251271" NOx_abs="133.531559" fuel_abs="146.630821" electricity_abs="0"/>
    </tripinfo>
    <tripinfo id="h3154c1:1" depart="57658.00" departLane="24634507_1" departPos="5.10" departSpeed="0.00" departDelay="0.00" arrival="57820.00" arrivalLane="-266565295#5_1" arrivalPos="172.76" arrivalSpeed="11.46" duration="162.00" routeLength="1206.22" waitingTime="38.00" waitingCount="2" stopTime="0.00" timeLoss="60.62" rerouteNo="1" devices="tripinfo_h3154c1:1 routing_h3154c1:1 emissions_h3154c1:1" vType="default_016" speedFactor="0.88" vaporized="">
        <emissions CO_abs="8987.077469" CO2_abs="360902.583816" HC_abs="49.346657" PMx_abs="6.612800" NOx_abs="149.326068" fuel_abs="155.139138" electricity_abs="0"/>
    </tripinfo>
    <tripinfo id="randUni15030:1" depart="57735.00" departLane="386687232#0_1" departPos="5.10" departSpeed="0.00" departDelay="0.10" arrival="57829.00" arrivalLane="26677539_1" arrivalPos="151.98" arrivalSpeed="8.89" duration="94.00" routeLength="919.89" waitingTime="5.00" waitingCount="1" stopTime="0.00" timeLoss="21.36" rerouteNo="1" devices="tripinfo_randUni15030:1 routing_randUni15030:1 emissions_randUni15030:1" vType="random_016" speedFactor="1.15" vaporized="">
        <emissions CO_abs="3742.230811" CO2_abs="238932.457917" HC_abs="22.513274" PMx_abs="4.042914" NOx_abs="96.149195" fuel_abs="102.707192" electricity_abs="0"/>
    </tripinfo>
    <tripinfo id="h645c1:1" depart="57622.00" departLane="266565295#5_1" departPos="5.10" departSpeed="0.00" departDelay="0.40" arrival="57834.00" arrivalLane="-315358244_1" arrivalPos="33.95" arrivalSpeed="11.62" duration="212.00" routeLength="1910.83" waitingTime="36.00" waitingCount="3" stopTime="0.00" timeLoss="62.17" rerouteNo="1" devices="tripinfo_h645c1:1 routing_h645c1:1 emissions_h645c1:1" vType="default_016" speedFactor="0.93" vaporized="">
        <emissions CO_abs="9311.019955" CO2_abs="478624.121038" HC_abs="53.571457" PMx_abs="8.293120" NOx_abs="194.018972" fuel_abs="205.742019" electricity_abs="0"/>
    </tripinfo>
    <tripinfo id="carIn81860:1" depart="57712.00" departLane="128361102#0_1" departPos="5.10" departSpeed="0.00" departDelay="0.60" arrival="57834.00" arrivalLane="-24634517#17_1" arrivalPos="6.43" arrivalSpeed="8.06" duration="122.00" routeLength="1229.64" waitingTime="12.00" waitingCount="2" stopTime="0.00" timeLoss="32.15" rerouteNo="1" devices="tripinfo_carIn81860:1 routing_carIn81860:1 emissions_carIn81860:1" vType="default_016" speedFactor="1.01" vaporized="">
        <emissions CO_abs="4827.648691" CO2_abs="305084.976908" HC_abs="29.131734" PMx_abs="5.226513" NOx_abs="122.799716" fuel_abs="131.143439" electricity_abs="0"/>
    </tripinfo>
    <tripinfo id="carIn50326:1" depart="57651.00" departLane="128361102#0_1" departPos="5.10" departSpeed="0.00" departDelay="0.30" arrival="57835.00" arrivalLane="18809673#0_1" arrivalPos="473.56" arrivalSpeed="12.08" duration="184.00" routeLength="1591.07" waitingTime="18.00" waitingCount="2" stopTime="0.00" timeLoss="43.87" rerouteNo="1" devices="tripinfo_carIn50326:1 routing_carIn50326:1 emissions_carIn50326:1" vType="default_016" speedFactor="0.92" vaporized="">
        <emissions CO_abs="6776.779970" CO2_abs="372614.027700" HC_abs="39.504417" PMx_abs="6.156321" NOx_abs="149.708867" fuel_abs="160.172367" electricity_abs="0"/>
    </tripinfo>
    <tripinfo id="h9563c2:5" depart="57631.00" departLane="315358244_1" departPos="5.10" departSpeed="0.00" departDelay="0.70" arrival="57836.00" arrivalLane="386687235_1" arrivalPos="80.84" arrivalSpeed="14.68" duration="205.00" routeLength="1186.14" waitingTime="90.00" waitingCount="3" stopTime="0.00" timeLoss="124.82" rerouteNo="1" devices="tripinfo_h9563c2:5 routing_h9563c2:5 emissions_h9563c2:5" vType="default_016" speedFactor="1.08" vaporized="">
        <emissions CO_abs="17726.064300" CO2_abs="535169.742136" HC_abs="93.251281" PMx_abs="10.912307" NOx_abs="228.256899" fuel_abs="230.052468" electricity_abs="0"/>
    </tripinfo>
    <tripinfo id="carIn107282:1" depart="57749.00" departLane="-447569998#1_1" departPos="5.10" departSpeed="0.00" departDelay="0.00" arrival="57839.00" arrivalLane="315358242#0_1" arrivalPos="165.37" arrivalSpeed="11.59" duration="90.00" routeLength="448.50" waitingTime="32.00" waitingCount="1" stopTime="0.00" timeLoss="41.67" rerouteNo="1" devices="tripinfo_carIn107282:1 routing_carIn107282:1 emissions_carIn107282:1" vType="default_016" speedFactor="0.86" vaporized="">
        <emissions CO_abs="6944.159494" CO2_abs="190098.056112" HC_abs="36.029282" PMx_abs="3.725158" NOx_abs="80.693613" fuel_abs="81.717840" electricity_abs="0"/>
    </tripinfo>
    <tripinfo id="randUni31145:1" depart="57814.00" departLane="10425609#0_1" departPos="5.10" departSpeed="0.00" departDelay="0.30" arrival="57840.00" arrivalLane="201956810_1" arrivalPos="71.65" arrivalSpeed="12.65" duration="26.00" routeLength="255.78" waitingTime="0.00" waitingCount="0" stopTime="0.00" timeLoss="5.40" rerouteNo="1" devices="tripinfo_randUni31145:1 routing_randUni31145:1 emissions_randUni31145:1" vType="random_016" speedFactor="0.97" vaporized="">
        <emissions CO_abs="1516.161862" CO2_abs="84481.482642" HC_abs="8.895407" PMx_abs="1.576055" NOx_abs="35.286134" fuel_abs="36.315012" electricity_abs="0"/>
    </tripinfo>
    <tripinfo id="S5R_frequency1.2" depart="57657.00" departLane="315358250#0_1" departPos="12.10" departSpeed="0.00" departDelay="45.40" arrival="57841.00" arrivalLane="386687235_1" arrivalPos="80.84" arrivalSpeed="13.62" duration="184.00" routeLength="1115.62" waitingTime="71.00" waitingCount="2" stopTime="0.00" timeLoss="102.41" rerouteNo="1" devices="tripinfo_S5R_frequency1.2 routing_S5R_frequency1.2 emissions_S5R_frequency1.2" vType="bus" speedFactor="1.00" vaporized="">
        <emissions CO_abs="3565.693267" CO2_abs="1758189.569334" HC_abs="775.805787" PMx_abs="371.197849" NOx_abs="14938.085312" fuel_abs="749.684141" electricity_abs="0"/>
    </tripinfo>
    <tripinfo id="carIn86816:1" depart="57617.00" departLane="128361102#0_1" departPos="5.10" departSpeed="0.00" departDelay="0.80" arrival="57842.00" arrivalLane="201956811#0_1" arrivalPos="40.40" arrivalSpeed="11.44" duration="225.00" routeLength="2067.33" waitingTime="22.00" waitingCount="2" stopTime="0.00" timeLoss="49.38" rerouteNo="1" devices="tripinfo_carIn86816:1 routing_carIn86816:1 emissions_carIn86816:1" vType="default_016" speedFactor="0.86" vaporized="">
        <emissions CO_abs="8385.689011" CO2_abs="486584.168144" HC_abs="49.460142" PMx_abs="7.865929" NOx_abs="194.101724" fuel_abs="209.163622" electricity_abs="0"/>
    </tripinfo>
    <tripinfo id="carIn102915:1" depart="57643.00" departLane="128361102#0_1" departPos="5.10" departSpeed="0.00" departDelay="0.40" arrival="57843.00" arrivalLane="201956811#0_1" arrivalPos="40.40" arrivalSpeed="13.18" duration="200.00" routeLength="2067.33" waitingTime="15.00" waitingCount="2" stopTime="0.00" timeLoss="43.95" rerouteNo="1" devices="tripinfo_carIn102915:1 routing_carIn102915:1 emissions_carIn102915:1" vType="default_016" speedFactor="0.97" vaporized="">
        <emissions CO_abs="7897.260020" CO2_abs="480304.442957" HC_abs="47.159764" PMx_abs="8.135562" NOx_abs="193.116296" fuel_abs="206.463406" electricity_abs="0"/>
    </tripinfo>
    <tripinfo id="carIn107084:1" depart="57601.00" departLane="124812856#0_1" departPos="5.10" departSpeed="0.00" departDelay="0.70" arrival="57844.00" arrivalLane="-128361102#1_1" arrivalPos="274.68" arrivalSpeed="11.54" duration="243.00" routeLength="2250.49" waitingTime="16.00" waitingCount="2" stopTime="0.00" timeLoss="47.30" rerouteNo="1" devices="tripinfo_carIn107084:1 routing_carIn107084:1 emissions_carIn107084:1" vType="default_016" speedFactor="0.84" vaporized="">
        <emissions CO_abs="8500.005768" CO2_abs="504090.791876" HC_abs="50.364182" PMx_abs="8.025739" NOx_abs="200.564375" fuel_abs="216.689038" electricity_abs="0"/>
    </tripinfo>
    <tripinfo id="carIn77943:1" depart="57608.00" departLane="124812856#0_1" departPos="5.10" departSpeed="0.00" departDelay="2.50" arrival="57845.00" arrivalLane="-128361102#1_1" arrivalPos="274.68" arrivalSpeed="13.90" duration="237.00" routeLength="2250.49" waitingTime="13.00" waitingCount="2" stopTime="0.00" timeLoss="79.28" rerouteNo="1" devices="tripinfo_carIn77943:1 routing_carIn77943:1 emissions_carIn77943:1" vType="default_016" speedFactor="1.04" vaporized="">
        <emissions CO_abs="10151.681904" CO2_abs="622388.503034" HC_abs="60.783631" PMx_abs="10.907353" NOx_abs="254.285830" fuel_abs="267.538779" electricity_abs="0"/>
    </tripinfo>
    <tripinfo id="randUni33724:1" depart="57646.00" departLane="128361102#0_1" departPos="5.10" departSpeed="0.00" departDelay="1.20" arrival="57845.00" arrivalLane="201956811#0_1" arrivalPos="40.40" arrivalSpeed="15.09" duration="199.00" routeLength="2067.33" waitingTime="18.00" waitingCount="2" stopTime="0.00" timeLoss="65.05" rerouteNo="1" devices="tripinfo_randUni33724:1 routing_randUni33724:1 emissions_randUni33724:1" vType="random_016" speedFactor="1.13" vaporized="">
        <emissions CO_abs="8590.664808" CO2_abs="537155.299186" HC_abs="51.740797" PMx_abs="9.476854" NOx_abs="218.123238" fuel_abs="230.900533" electricity_abs="0"/>
    </tripinfo>
    <tripinfo id="randUni2407:1" depart="57820.00" departLane="10425609#0_1" departPos="5.10" departSpeed="0.00" departDelay="0.80" arrival="57845.00" arrivalLane="201956810_1" arrivalPos="71.65" arrivalSpeed="13.97" duration="25.00" routeLength="255.78" waitingTime="0.00" waitingCount="0" stopTime="0.00" timeLoss="6.29" rerouteNo="1" devices="tripinfo_randUni2407:1 routing_randUni2407:1 emissions_randUni2407:1" vType="random_016" speedFactor="1.08" vaporized="">
        <emissions CO_abs="1706.116164" CO2_abs="99986.680083" HC_abs="10.128052" PMx_abs="1.877806" NOx_abs="41.713980" fuel_abs="42.979958" electricity_abs="0"/>
    </tripinfo>
    <tripinfo id="h4538c1:1" depart="57701.00" departLane="-10427692#1_1" departPos="5.10" departSpeed="0.00" departDelay="0.00" arrival="57847.00" arrivalLane="-128361102#1_1" arrivalPos="274.68" arrivalSpeed="13.60" duration="146.00" routeLength="440.74" waitingTime="103.00" waitingCount="1" stopTime="0.00" timeLoss="115.10" rerouteNo="1" devices="tripinfo_h4538c1:1 routing_h4538c1:1 emissions_h4538c1:1" vType="default_016" speedFactor="1.03" vaporized="">
        <emissions CO_abs="18258.586247" CO2_abs="392111.367386" HC_abs="92.376944" PMx_abs="8.990591" NOx_abs="174.208894" fuel_abs="168.559157" electricity_abs="0"/>
    </tripinfo>
    <tripinfo id="carIn73855:1" depart="57743.00" departLane="386687232#0_1" departPos="5.10" departSpeed="0.00" departDelay="0.50" arrival="57847.00" arrivalLane="-315358244_1" arrivalPos="33.95" arrivalSpeed="12.37" duration="104.00" routeLength="1157.39" waitingTime="0.00" waitingCount="0" stopTime="0.00" timeLoss="13.44" rerouteNo="1" devices="tripinfo_carIn73855:1 routing_carIn73855:1 emissions_carIn73855:1" vType="default_016" speedFactor="0.94" vaporized="">
        <emissions CO_abs="3467.384326" CO2_abs="252804.479756" HC_abs="21.685014" PMx_abs="4.108092" NOx_abs="100.549227" fuel_abs="108.670072" electricity_abs="0"/>
    </tripinfo>
    <tripinfo id="50R_frequency3.17" depart="57674.00" departLane="-18809673#6_1" departPos="12.10" departSpeed="0.00" departDelay="0.70" arrival="57849.00" arrivalLane="201956811#0_1" arrivalPos="40.40" arrivalSpeed="12.84" duration="175.00" routeLength="1954.47" waitingTime="4.00" waitingCount="1" stopTime="0.00" timeLoss="30.45" rerouteNo="1" devices="tripinfo_50R_frequency3.17 routing_50R_frequency3.17 emissions_50R_frequency3.17" vType="bus" speedFactor="1.00" vaporized="">
        <emissions CO_abs="3266.969164" CO2_abs="2080320.959868" HC_abs="678.706443" PMx_abs="350.454936" NOx_abs="16061.419617" fuel_abs="887.236381" electricity_abs="0"/>
    </tripinfo>
    <tripinfo id="carIn118591:1" depart="57689.00" departLane="315358244_1" departPos="5.10" departSpeed="0.00" departDelay="0.20" arrival="57851.00" arrivalLane="386687235_1" arrivalPos="80.84" arrivalSpeed="11.91" duration="162.00" routeLength="1186.14" waitingTime="45.00" waitingCount="3" stopTime="0.00" timeLoss="70.82" rerouteNo="1" devices="tripinfo_carIn118591:1 routing_carIn118591:1 emissions_carIn118591:1" vType="default_016" speedFactor="0.95" vaporized="">
        <emissions CO_abs="10248.353073" CO2_abs="376489.325798" HC_abs="55.460320" PMx_abs="7.059706" NOx_abs="156.605409" fuel_abs="161.839844" electricity_abs="0"/>
    </tripinfo>
    <tripinfo id="h16072c2:3" depart="57663.00" departLane="315358254#0_1" departPos="5.10" departSpeed="0.00" departDelay="2.50" arrival="57853.00" arrivalLane="386687235_1" arrivalPos="80.84" arrivalSpeed="13.64" duration="190.00" routeLength="1611.92" waitingTime="56.00" waitingCount="2" stopTime="0.00" timeLoss="77.53" rerouteNo="1" devices="tripinfo_h16072c2:3 routing_h16072c2:3 emissions_h16072c2:3" vType="default_016" speedFactor="1.05" vaporized="">
        <emissions CO_abs="11896.725254" CO2_abs="472750.108879" HC_abs="65.096185" PMx_abs="8.797838" NOx_abs="194.496315" fuel_abs="203.218471" electricity_abs="0"/>
    </tripinfo>
    <tripinfo id="h9953c2:3" depart="57682.00" departLane="-54169231#2_1" departPos="5.10" departSpeed="0.00" departDelay="0.00" arrival="57853.00" arrivalLane="386687235_2" arrivalPos="80.84" arrivalSpeed="15.28" duration="171.00" routeLength="1535.60" waitingTime="24.00" waitingCount="3" stopTime="0.00" timeLoss="57.56" rerouteNo="1" devices="tripinfo_h9953c2:3 routing_h9953c2:3 emissions_h9953c2:3" vType="default_016" speedFactor="1.11" vaporized="">