<?xml version="1.0" encoding="UTF-8"?>

<!-- generated on Thu Nov  4 13:37:57 2021 by Eclipse SUMO sumo Version 1.9.0
<configuration xmlns:xsi="http://www.w3.org/2001/XMLSchema-instance" xsi:noNamespaceSchemaLocation="http://sumo.dlr.de/xsd/sumoConfiguration.xsd">

    <input>
        <net-file value="/mainfs/home/bk2g18/RESCO/environments/ingolstadt21/ingolstadt21.net.xml"/>
        <route-files value="/mainfs/home/bk2g18/RESCO/environments/ingolstadt21/ingolstadt21.rou.xml"/>
    </input>

    <output>
        <tripinfo-output value="/mainfs/home/bk2g18/RESCO/logs/MPLight-tr0-ingolstadt21-21-mplight-pressure/tripinfo_45.xml"/>
        <tripinfo-output.write-unfinished value="true"/>
    </output>

    <time>
        <begin value="57600"/>
        <end value="61200"/>
    </time>

    <processing>
        <time-to-teleport value="-1"/>
    </processing>

    <report>
        <xml-validation value="never"/>
        <xml-validation.routes value="never"/>
        <no-warnings value="true"/>
        <no-step-log value="true"/>
    </report>

    <emissions>
        <device.emissions.probability value="1"/>
    </emissions>

    <traci_server>
        <remote-port value="49313"/>
    </traci_server>

    <random_number>
        <random value="true"/>
    </random_number>

</configuration>
-->

<tripinfos xmlns:xsi="http://www.w3.org/2001/XMLSchema-instance" xsi:noNamespaceSchemaLocation="http://sumo.dlr.de/xsd/tripinfo_file.xsd">
    <tripinfo id="h15454c2:3" depart="57612.00" departLane="24608844_1" departPos="5.10" departSpeed="0.00" departDelay="0.50" arrival="57652.00" arrivalLane="32978638#0_1" arrivalPos="49.29" arrivalSpeed="13.24" duration="40.00" routeLength="354.79" waitingTime="0.00" waitingCount="0" stopTime="0.00" timeLoss="5.82" rerouteNo="1" devices="tripinfo_h15454c2:3 routing_h15454c2:3 emissions_h15454c2:3" vType="default_016" speedFactor="1.01" vaporized="">
        <emissions CO_abs="1763.052638" CO2_abs="100784.101170" HC_abs="10.351445" PMx_abs="1.582802" NOx_abs="40.061414" fuel_abs="43.323245" electricity_abs="0"/>
    </tripinfo>
    <tripinfo id="carIn60260:1" depart="57606.00" departLane="315358254#0_1" departPos="5.10" departSpeed="0.00" departDelay="0.90" arrival="57663.00" arrivalLane="399835085#1_1" arrivalPos="212.23" arrivalSpeed="7.70" duration="57.00" routeLength="430.98" waitingTime="1.00" waitingCount="1" stopTime="0.00" timeLoss="10.75" rerouteNo="1" devices="tripinfo_carIn60260:1 routing_carIn60260:1 emissions_carIn60260:1" vType="default_016" speedFactor="1.00" vaporized="">
        <emissions CO_abs="2532.265788" CO2_abs="122735.348871" HC_abs="14.364480" PMx_abs="2.060633" NOx_abs="50.001347" fuel_abs="52.759338" electricity_abs="0"/>
    </tripinfo>
    <tripinfo id="carIn53971:1" depart="57640.00" departLane="272042143_1" departPos="5.10" departSpeed="0.00" departDelay="0.80" arrival="57695.00" arrivalLane="24634414#1_1" arrivalPos="162.19" arrivalSpeed="7.59" duration="55.00" routeLength="493.04" waitingTime="0.00" waitingCount="0" stopTime="0.00" timeLoss="8.39" rerouteNo="1" devices="tripinfo_carIn53971:1 routing_carIn53971:1 emissions_carIn53971:1" vType="default_016" speedFactor="0.98" vaporized="">
        <emissions CO_abs="2463.716220" CO2_abs="136948.487454" HC_abs="14.389329" PMx_abs="2.299624" NOx_abs="55.528476" fuel_abs="58.868752" electricity_abs="0"/>
    </tripinfo>
    <tripinfo id="h7800c1:5" depart="57696.00" departLane="-447569998#1_1" departPos="5.10" departSpeed="0.00" departDelay="0.00" arrival="57719.00" arrivalLane="-447569998#1_1" arrivalPos="180.76" arrivalSpeed="8.60" duration="23.00" routeLength="175.66" waitingTime="0.00" waitingCount="0" stopTime="0.00" timeLoss="2.98" rerouteNo="1" devices="tripinfo_h7800c1:5 routing_h7800c1:5 emissions_h7800c1:5" vType="default_016" speedFactor="1.10" vaporized="">
        <emissions CO_abs="1116.409087" CO2_abs="54197.454505" HC_abs="6.329154" PMx_abs="0.875274" NOx_abs="21.919897" fuel_abs="23.297505" electricity_abs="0"/>
    </tripinfo>
    <tripinfo id="h3688c1:1" depart="57625.00" departLane="201201950#1_1" departPos="5.10" departSpeed="0.00" departDelay="0.00" arrival="57731.00" arrivalLane="32978638#0_1" arrivalPos="49.29" arrivalSpeed="14.19" duration="106.00" routeLength="1089.75" waitingTime="12.00" waitingCount="1" stopTime="0.00" timeLoss="28.74" rerouteNo="1" devices="tripinfo_h3688c1:1 routing_h3688c1:1 emissions_h3688c1:1" vType="default_016" speedFactor="1.04" vaporized="">
        <emissions CO_abs="4936.862581" CO2_abs="294712.418797" HC_abs="29.309572" PMx_abs="5.121069" NOx_abs="118.939761" fuel_abs="126.684828" electricity_abs="0"/>
    </tripinfo>
    <tripinfo id="h7181c1:1" depart="57660.00" departLane="315358254#0_1" departPos="5.10" departSpeed="0.00" departDelay="0.10" arrival="57739.00" arrivalLane="306240162#0_0" arrivalPos="220.43" arrivalSpeed="18.51" duration="79.00" routeLength="932.35" waitingTime="12.00" waitingCount="2" stopTime="0.00" timeLoss="34.02" rerouteNo="1" devices="tripinfo_h7181c1:1 routing_h7181c1:1 emissions_h7181c1:1" vType="default_016" speedFactor="1.15" vaporized="">
        <emissions CO_abs="5842.128366" CO2_abs="316272.318310" HC_abs="34.205175" PMx_abs="6.543633" NOx_abs="133.129321" fuel_abs="135.951559" electricity_abs="0"/>
    </tripinfo>
    <tripinfo id="h4538c1:1" depart="57701.00" departLane="-10427692#1_1" departPos="5.10" departSpeed="0.00" departDelay="0.00" arrival="57744.00" arrivalLane="-128361102#1_1" arrivalPos="274.68" arrivalSpeed="11.46" duration="43.00" routeLength="440.74" waitingTime="0.00" waitingCount="0" stopTime="0.00" timeLoss="6.95" rerouteNo="1" devices="tripinfo_h4538c1:1 routing_h4538c1:1 emissions_h4538c1:1" vType="default_016" speedFactor="0.89" vaporized="">
        <emissions CO_abs="1662.740103" CO2_abs="108681.628901" HC_abs="10.108440" PMx_abs="1.825688" NOx_abs="43.870801" fuel_abs="46.717716" electricity_abs="0"/>
    </tripinfo>
    <tripinfo id="h317c2:1" depart="57707.00" departLane="-32978638#0_1" departPos="5.10" departSpeed="0.00" departDelay="0.10" arrival="57744.00" arrivalLane="-266565295#5_1" arrivalPos="172.76" arrivalSpeed="12.12" duration="37.00" routeLength="370.53" waitingTime="0.00" waitingCount="0" stopTime="0.00" timeLoss="5.73" rerouteNo="1" devices="tripinfo_h317c2:1 routing_h317c2:1 emissions_h317c2:1" vType="default_016" speedFactor="0.89" vaporized="">
        <emissions CO_abs="1637.083369" CO2_abs="99263.096309" HC_abs="9.772454" PMx_abs="1.696643" NOx_abs="40.342671" fuel_abs="42.669128" electricity_abs="0"/>
    </tripinfo>
    <tripinfo id="h9563c2:5" depart="57631.00" departLane="315358244_1" departPos="5.10" departSpeed="0.00" departDelay="0.70" arrival="57746.00" arrivalLane="386687235_1" arrivalPos="80.84" arrivalSpeed="14.64" duration="115.00" routeLength="1186.14" waitingTime="17.00" waitingCount="2" stopTime="0.00" timeLoss="34.18" rerouteNo="1" devices="tripinfo_h9563c2:5 routing_h9563c2:5 emissions_h9563c2:5" vType="default_016" speedFactor="1.08" vaporized="">
        <emissions CO_abs="5773.616670" CO2_abs="317337.181934" HC_abs="33.752071" PMx_abs="5.768524" NOx_abs="129.627094" fuel_abs="136.410315" electricity_abs="0"/>
    </tripinfo>
    <tripinfo id="h12244c1:3" depart="57612.00" departLane="315358244_1" departPos="5.10" departSpeed="0.00" departDelay="0.40" arrival="57750.00" arrivalLane="386687235_1" arrivalPos="80.84" arrivalSpeed="12.42" duration="138.00" routeLength="1186.14" waitingTime="21.00" waitingCount="2" stopTime="0.00" timeLoss="47.44" rerouteNo="1" devices="tripinfo_h12244c1:3 routing_h12244c1:3 emissions_h12244c1:3" vType="default_016" speedFactor="0.96" vaporized="">
        <emissions CO_abs="6298.825771" CO2_abs="331965.488040" HC_abs="36.441989" PMx_abs="5.821923" NOx_abs="135.219214" fuel_abs="142.698874" electricity_abs="0"/>
    </tripinfo>
    <tripinfo id="h5979c1:5" depart="57669.00" departLane="399835085#1_1" departPos="5.10" departSpeed="0.00" departDelay="0.00" arrival="57761.00" arrivalLane="-315358254#1_1" arrivalPos="137.16" arrivalSpeed="12.36" duration="92.00" routeLength="659.33" waitingTime="0.00" waitingCount="0" stopTime="0.00" timeLoss="10.76" rerouteNo="1" devices="tripinfo_h5979c1:5 routing_h5979c1:5 emissions_h5979c1:5" vType="default_016" speedFactor="0.89" vaporized="">
        <emissions CO_abs="3918.809549" CO2_abs="178870.745142" HC_abs="21.935664" PMx_abs="2.829269" NOx_abs="72.016986" fuel_abs="76.890281" electricity_abs="0"/>
    </tripinfo>
    <tripinfo id="carIn30817:1" depart="57681.00" departLane="315358244_1" departPos="5.10" departSpeed="0.00" departDelay="0.20" arrival="57763.00" arrivalLane="447569997#1_1" arrivalPos="180.93" arrivalSpeed="8.02" duration="82.00" routeLength="718.04" waitingTime="10.00" waitingCount="1" stopTime="0.00" timeLoss="23.06" rerouteNo="1" devices="tripinfo_carIn30817:1 routing_carIn30817:1 emissions_carIn30817:1" vType="default_016" speedFactor="1.04" vaporized="">
        <emissions CO_abs="3913.527440" CO2_abs="200245.822727" HC_abs="22.455423" PMx_abs="3.445866" NOx_abs="81.272430" fuel_abs="86.077963" electricity_abs="0"/>
    </tripinfo>
    <tripinfo id="carIn28951:1" depart="57606.00" departLane="10425609#0_1" departPos="5.10" departSpeed="0.00" departDelay="0.20" arrival="57764.00" arrivalLane="-128361102#1_1" arrivalPos="274.68" arrivalSpeed="16.09" duration="158.00" routeLength="2095.01" waitingTime="3.00" waitingCount="1" stopTime="0.00" timeLoss="28.37" rerouteNo="1" devices="tripinfo_carIn28951:1 routing_carIn28951:1 emissions_carIn28951:1" vType="default_016" speedFactor="1.19" vaporized="">
        <emissions CO_abs="5673.187377" CO2_abs="462381.728399" HC_abs="36.420630" PMx_abs="8.104634" NOx_abs="184.854758" fuel_abs="198.757318" electricity_abs="0"/>
    </tripinfo>
    <tripinfo id="S5R_frequency1.2" depart="57634.00" departLane="315358250#0_1" departPos="12.10" departSpeed="0.00" departDelay="22.40" arrival="57764.00" arrivalLane="386687235_1" arrivalPos="80.84" arrivalSpeed="13.46" duration="130.00" routeLength="1115.62" waitingTime="15.00" waitingCount="2" stopTime="0.00" timeLoss="48.59" rerouteNo="1" devices="tripinfo_S5R_frequency1.2 routing_S5R_frequency1.2 emissions_S5R_frequency1.2" vType="bus" speedFactor="1.00" vaporized="">
        <emissions CO_abs="2605.366923" CO2_abs="1531621.664679" HC_abs="542.308916" PMx_abs="276.180064" NOx_abs="12173.739309" fuel_abs="653.172066" electricity_abs="0"/>
    </tripinfo>
    <tripinfo id="carIn27009:1" depart="57673.00" departLane="-447569998#1_1" departPos="5.10" departSpeed="0.00" departDelay="0.50" arrival="57766.00" arrivalLane="-26677539_1" arrivalPos="152.75" arrivalSpeed="8.33" duration="93.00" routeLength="699.63" waitingTime="0.00" waitingCount="0" stopTime="0.00" timeLoss="10.80" rerouteNo="1" devices="tripinfo_carIn27009:1 routing_carIn27009:1 emissions_carIn27009:1" vType="default_015" speedFactor="1.02" vaporized="">
        <emissions CO_abs="3694.456657" CO2_abs="178717.923649" HC_abs="20.917254" PMx_abs="2.830018" NOx_abs="72.021962" fuel_abs="76.824389" electricity_abs="0"/>
    </tripinfo>
    <tripinfo id="h3568c1:3" depart="57656.00" departLane="266565295#5_1" departPos="5.10" departSpeed="0.00" departDelay="0.80" arrival="57771.00" arrivalLane="-24634415_1" arrivalPos="62.03" arrivalSpeed="10.48" duration="115.00" routeLength="807.40" waitingTime="18.00" waitingCount="1" stopTime="0.00" timeLoss="36.58" rerouteNo="1" devices="tripinfo_h3568c1:3 routing_h3568c1:3 emissions_h3568c1:3" vType="default_016" speedFactor="0.83" vaporized="">
        <emissions CO_abs="6550.789803" CO2_abs="266972.513334" HC_abs="36.055278" PMx_abs="4.901307" NOx_abs="111.192364" fuel_abs="114.761786" electricity_abs="0"/>
    </tripinfo>
    <tripinfo id="h330c1:1" depart="57736.00" departLane="-32978638#0_1" departPos="5.10" departSpeed="0.00" departDelay="0.20" arrival="57771.00" arrivalLane="-266565295#5_1" arrivalPos="172.76" arrivalSpeed="13.04" duration="35.00" routeLength="370.53" waitingTime="0.00" waitingCount="0" stopTime="0.00" timeLoss="6.06" rerouteNo="1" devices="tripinfo_h330c1:1 routing_h330c1:1 emissions_h330c1:1" vType="default_016" speedFactor="0.95" vaporized="">
        <emissions CO_abs="1642.190319" CO2_abs="101968.075853" HC_abs="9.871399" PMx_abs="1.793442" NOx_abs="41.665556" fuel_abs="43.831787" electricity_abs="0"/>
    </tripinfo>
    <tripinfo id="carIn22761:1" depart="57616.00" departLane="-306240162#1_0" departPos="5.10" departSpeed="0.00" departDelay="2.10" arrival="57773.00" arrivalLane="399835085#1_1" arrivalPos="212.23" arrivalSpeed="7.77" duration="157.00" routeLength="1093.26" waitingTime="53.00" waitingCount="2" stopTime="0.00" timeLoss="81.10" rerouteNo="1" devices="tripinfo_carIn22761:1 routing_carIn22761:1 emissions_carIn22761:1" vType="default_016" speedFactor="1.03" vaporized="">
        <emissions CO_abs="13230.719650" CO2_abs="457634.391441" HC_abs="71.106374" PMx_abs="9.559140" NOx_abs="195.822268" fuel_abs="196.720579" electricity_abs="0"/>
    </tripinfo>
    <tripinfo id="h3326c1:2" depart="57656.00" departLane="22716069#0_1" departPos="5.10" departSpeed="0.00" departDelay="0.00" arrival="57773.00" arrivalLane="24634517#13_1" arrivalPos="111.62" arrivalSpeed="14.34" duration="117.00" routeLength="1312.81" waitingTime="6.00" waitingCount="1" stopTime="0.00" timeLoss="23.80" rerouteNo="1" devices="tripinfo_h3326c1:2 routing_h3326c1:2 emissions_h3326c1:2" vType="default_016" speedFactor="1.05" vaporized="">
        <emissions CO_abs="4576.556769" CO2_abs="332010.110268" HC_abs="28.486927" PMx_abs="5.671347" NOx_abs="133.084543" fuel_abs="142.716905" electricity_abs="0"/>
    </tripinfo>
    <tripinfo id="carIn121703:1" depart="57647.00" departLane="386687232#0_1" departPos="5.10" departSpeed="0.00" departDelay="0.30" arrival="57775.00" arrivalLane="-315358244_1" arrivalPos="33.95" arrivalSpeed="13.08" duration="128.00" routeLength="1157.39" waitingTime="27.00" waitingCount="2" stopTime="0.00" timeLoss="45.42" rerouteNo="1" devices="tripinfo_carIn121703:1 routing_carIn121703:1 emissions_carIn121703:1" vType="default_016" speedFactor="1.03" vaporized="">
        <emissions CO_abs="6801.796404" CO2_abs="324717.096474" HC_abs="38.470364" PMx_abs="5.749389" NOx_abs="131.623301" fuel_abs="139.583626" electricity_abs="0"/>
    </tripinfo>
    <tripinfo id="carIn80064:1" depart="57603.00" departLane="128361109#1_1" departPos="5.10" departSpeed="0.00" departDelay="0.40" arrival="57782.00" arrivalLane="-315358254#1_1" arrivalPos="137.16" arrivalSpeed="12.38" duration="179.00" routeLength="1587.97" waitingTime="43.00" waitingCount="4" stopTime="0.00" timeLoss="87.24" rerouteNo="1" devices="tripinfo_carIn80064:1 routing_carIn80064:1 emissions_carIn80064:1" vType="default_016" speedFactor="0.97" vaporized="">
        <emissions CO_abs="12195.875157" CO2_abs="550045.392756" HC_abs="68.603352" PMx_abs="10.994322" NOx_abs="230.950769" fuel_abs="236.442455" electricity_abs="0"/>
    </tripinfo>
    <tripinfo id="h3154c1:1" depart="57658.00" departLane="24634507_1" departPos="5.10" departSpeed="0.00" departDelay="0.00" arrival="57788.00" arrivalLane="-266565295#5_1" arrivalPos="172.76" arrivalSpeed="12.23" duration="130.00" routeLength="1206.22" waitingTime="14.00" waitingCount="2" stopTime="0.00" timeLoss="35.20" rerouteNo="1" devices="tripinfo_h3154c1:1 routing_h3154c1:1 emissions_h3154c1:1" vType="default_016" speedFactor="0.94" vaporized="">
        <emissions CO_abs="4773.140855" CO2_abs="298405.024871" HC_abs="28.699060" PMx_abs="5.011466" NOx_abs="120.118661" fuel_abs="128.272133" electricity_abs="0"/>
    </tripinfo>
    <tripinfo id="carIn86816:1" depart="57617.00" departLane="128361102#0_1" departPos="5.10" departSpeed="0.00" departDelay="0.80" arrival="57791.00" arrivalLane="201956811#0_1" arrivalPos="40.40" arrivalSpeed="16.17" duration="174.00" routeLength="2067.33" waitingTime="17.00" waitingCount="2" stopTime="0.00" timeLoss="46.76" rerouteNo="1" devices="tripinfo_carIn86816:1 routing_carIn86816:1 emissions_carIn86816:1" vType="default_016" speedFactor="1.19" vaporized="">
        <emissions CO_abs="8148.953328" CO2_abs="542767.170410" HC_abs="49.660978" PMx_abs="9.889095" NOx_abs="220.262346" fuel_abs="233.312074" electricity_abs="0"/>
    </tripinfo>
    <tripinfo id="carIn12365:1" depart="57713.00" departLane="315358244_1" departPos="5.10" departSpeed="0.00" departDelay="0.50" arrival="57791.00" arrivalLane="447569997#1_1" arrivalPos="180.93" arrivalSpeed="7.99" duration="78.00" routeLength="718.04" waitingTime="5.00" waitingCount="1" stopTime="0.00" timeLoss="16.32" rerouteNo="1" devices="tripinfo_carIn12365:1 routing_carIn12365:1 emissions_carIn12365:1" vType="default_016" speedFactor="0.99" vaporized="">
        <emissions CO_abs="2610.460180" CO2_abs="163474.345078" HC_abs="15.690050" PMx_abs="2.681030" NOx_abs="65.372852" fuel_abs="70.271040" electricity_abs="0"/>
    </tripinfo>
    <tripinfo id="carIn50326:1" depart="57651.00" departLane="128361102#0_1" departPos="5.10" departSpeed="0.00" departDelay="0.30" arrival="57796.00" arrivalLane="18809673#0_1" arrivalPos="473.56" arrivalSpeed="13.77" duration="145.00" routeLength="1591.07" waitingTime="1.00" waitingCount="1" stopTime="0.00" timeLoss="20.60" rerouteNo="1" devices="tripinfo_carIn50326:1 routing_carIn50326:1 emissions_carIn50326:1" vType="default_016" speedFactor="1.05" vaporized="">
        <emissions CO_abs="4976.092685" CO2_abs="353324.757468" HC_abs="30.805919" PMx_abs="5.742542" NOx_abs="140.108443" fuel_abs="151.879670" electricity_abs="0"/>
    </tripinfo>
    <tripinfo id="carIn107282:1" depart="57749.00" departLane="-447569998#1_1" departPos="5.10" departSpeed="0.00" departDelay="0.00" arrival="57796.00" arrivalLane="315358242#0_1" arrivalPos="165.37" arrivalSpeed="13.67" duration="47.00" routeLength="448.50" waitingTime="0.00" waitingCount="0" stopTime="0.00" timeLoss="4.79" rerouteNo="1" devices="tripinfo_carIn107282:1 routing_carIn107282:1 emissions_carIn107282:1" vType="default_016" speedFactor="0.98" vaporized="">
        <emissions CO_abs="1758.078085" CO2_abs="105733.358515" HC_abs="10.458382" PMx_abs="1.720705" NOx_abs="42.345945" fuel_abs="45.450579" electricity_abs="0"/>
    </tripinfo>
    <tripinfo id="carIn129809:1" depart="57729.00" departLane="-447569998#1_1" departPos="5.10" departSpeed="0.00" departDelay="1.00" arrival="57797.00" arrivalLane="-315358244_1" arrivalPos="33.95" arrivalSpeed="15.78" duration="68.00" routeLength="706.49" waitingTime="0.00" waitingCount="0" stopTime="0.00" timeLoss="16.38" rerouteNo="1" devices="tripinfo_carIn129809:1 routing_carIn129809:1 emissions_carIn129809:1" vType="default_015" speedFactor="1.17" vaporized="">
        <emissions CO_abs="3057.334791" CO2_abs="203617.962742" HC_abs="18.668137" PMx_abs="3.466817" NOx_abs="81.729650" fuel_abs="87.526854" electricity_abs="0"/>
    </tripinfo>
    <tripinfo id="h11737c1:1" depart="57665.00" departLane="272042143_1" departPos="5.10" departSpeed="0.00" departDelay="1.50" arrival="57806.00" arrivalLane="-315358254#1_1" arrivalPos="137.16" arrivalSpeed="15.15" duration="141.00" routeLength="1596.88" waitingTime="12.00" waitingCount="2" stopTime="0.00" timeLoss="36.09" rerouteNo="1" devices="tripinfo_h11737c1:1 routing_h11737c1:1 emissions_h11737c1:1" vType="default_016" speedFactor="1.11" vaporized="">
        <emissions CO_abs="5155.012072" CO2_abs="369517.711954" HC_abs="32.120096" PMx_abs="6.378904" NOx_abs="148.156320" fuel_abs="158.839828" electricity_abs="0"/>
    </tripinfo>
    <tripinfo id="carIn126288:1" depart="57674.00" departLane="272042143_1" departPos="5.10" departSpeed="0.00" departDelay="0.00" arrival="57810.00" arrivalLane="-315358254#1_1" arrivalPos="137.16" arrivalSpeed="12.85" duration="136.00" routeLength="1596.88" waitingTime="0.00" waitingCount="0" stopTime="0.00" timeLoss="14.87" rerouteNo="1" devices="tripinfo_carIn126288:1 routing_carIn126288:1 emissions_carIn126288:1" vType="default_016" speedFactor="0.96" vaporized="">
        <emissions CO_abs="3953.185990" CO2_abs="312177.816611" HC_abs="25.274420" PMx_abs="4.968033" NOx_abs="123.082471" fuel_abs="134.192106" electricity_abs="0"/>
    </tripinfo>
    <tripinfo id="carIn12152:1" depart="57647.00" departLane="24599188#0.94_1" departPos="5.10" departSpeed="0.00" departDelay="0.50" arrival="57812.00" arrivalLane="-315358254#1_1" arrivalPos="137.16" arrivalSpeed="15.18" duration="165.00" routeLength="2034.31" waitingTime="8.00" waitingCount="1" stopTime="0.00" timeLoss="29.10" rerouteNo="1" devices="tripinfo_carIn12152:1 routing_carIn12152:1 emissions_carIn12152:1" vType="default_016" speedFactor="1.16" vaporized="">
        <emissions CO_abs="6089.062616" CO2_abs="440364.410263" HC_abs="37.926065" PMx_abs="7.576864" NOx_abs="175.871363" fuel_abs="189.293813" electricity_abs="0"/>
    </tripinfo>
    <tripinfo id="carIn102915:1" depart="57643.00" departLane="128361102#0_1" departPos="5.10" departSpeed="0.00" departDelay="0.40" arrival="57815.00" arrivalLane="201956811#0_1" arrivalPos="40.40" arrivalSpeed="14.74" duration="172.00" routeLength="2067.33" waitingTime="10.00" waitingCount="2" stopTime="0.00" timeLoss="36.14" rerouteNo="1" devices="tripinfo_carIn102915:1 routing_carIn102915:1 emissions_carIn102915:1" vType="default_016" speedFactor="1.11" vaporized="">
        <emissions CO_abs="5886.547731" CO2_abs="448287.967602" HC_abs="37.016752" PMx_abs="7.659794" NOx_abs="178.887167" fuel_abs="192.699574" electricity_abs="0"/>
    </tripinfo>
    <tripinfo id="h5216c1:1" depart="57664.00" departLane="224892339#0_1" departPos="5.10" departSpeed="0.00" departDelay="0.00" arrival="57823.00" arrivalLane="386687235_2" arrivalPos="80.84" arrivalSpeed="13.99" duration="159.00" routeLength="1823.78" waitingTime="6.00" waitingCount="1" stopTime="0.00" timeLoss="35.30" rerouteNo="1" devices="tripinfo_h5216c1:1 routing_h5216c1:1 emissions_h5216c1:1" vType="default_016" speedFactor="1.04" vaporized="">
        <emissions CO_abs="6737.711194" CO2_abs="453280.365121" HC_abs="41.262076" PMx_abs="8.033625" NOx_abs="183.634620" fuel_abs="194.845773" electricity_abs="0"/>
    </tripinfo>
    <tripinfo id="h16072c2:3" depart="57663.00" departLane="315358254#0_1" departPos="5.10" departSpeed="0.00" departDelay="2.50" arrival="57824.00" arrivalLane="386687235_1" arrivalPos="80.84" arrivalSpeed="13.73" duration="161.00" routeLength="1611.92" waitingTime="27.00" waitingCount="2" stopTime="0.00" timeLoss="49.03" rerouteNo="1" devices="tripinfo_h16072c2:3 routing_h16072c2:3 emissions_h16072c2:3" vType="default_016" speedFactor="1.06" vaporized="">
        <emissions CO_abs="7659.888465" CO2_abs="407024.583634" HC_abs="44.249570" PMx_abs="7.182044" NOx_abs="164.585406" fuel_abs="174.963820" electricity_abs="0"/>
    </tripinfo>
    <tripinfo id="h645c1:1" depart="57622.00" departLane="266565295#5_1" departPos="5.10" departSpeed="0.00" departDelay="0.40" arrival="57825.00" arrivalLane="-315358244_1" arrivalPos="33.95" arrivalSpeed="14.15" duration="203.00" routeLength="1910.83" waitingTime="42.00" waitingCount="3" stopTime="0.00" timeLoss="69.83" rerouteNo="1" devices="tripinfo_h645c1:1 routing_h645c1:1 emissions_h645c1:1" vType="default_016" speedFactor="1.04" vaporized="">
        <emissions CO_abs="10151.101256" CO2_abs="502025.907419" HC_abs="57.900683" PMx_abs="8.985046" NOx_abs="204.250180" fuel_abs="215.801530" electricity_abs="0"/>
    </tripinfo>
    <tripinfo id="h19804c1:3" depart="57617.00" departLane="124812856#0_1" departPos="5.10" departSpeed="0.00" departDelay="1.50" arrival="57835.00" arrivalLane="-128361102#1_1" arrivalPos="274.68" arrivalSpeed="14.22" duration="218.00" routeLength="2250.49" waitingTime="26.00" waitingCount="3" stopTime="0.00" timeLoss="62.31" rerouteNo="1" devices="tripinfo_h19804c1:3 routing_h19804c1:3 emissions_h19804c1:3" vType="default_016" speedFactor="1.05" vaporized="">
        <emissions CO_abs="9265.319343" CO2_abs="578957.155054" HC_abs="55.750225" PMx_abs="10.320007" NOx_abs="235.471750" fuel_abs="248.869260" electricity_abs="0"/>
    </tripinfo>
    <tripinfo id="h3864c1:3" depart="57678.00" departLane="24693977#1_1" departPos="5.10" departSpeed="0.00" departDelay="0.00" arrival="57839.00" arrivalLane="201956820_1" arrivalPos="48.33" arrivalSpeed="15.25" duration="161.00" routeLength="1574.85" waitingTime="18.00" waitingCount="2" stopTime="0.00" timeLoss="48.47" rerouteNo="1" devices="tripinfo_h3864c1:3 routing_h3864c1:3 emissions_h3864c1:3" vType="default_016" speedFactor="1.15" vaporized="">
        <emissions CO_abs="8269.040143" CO2_abs="475564.149280" HC_abs="48.721393" PMx_abs="8.783866" NOx_abs="196.244125" fuel_abs="204.424956" electricity_abs="0"/>
    </tripinfo>
    <tripinfo id="h17600c1:1" depart="57662.00" departLane="272042143_1" departPos="5.10" departSpeed="0.00" departDelay="0.30" arrival="57842.00" arrivalLane="201238729#3_1" arrivalPos="431.02" arrivalSpeed="13.27" duration="180.00" routeLength="2100.26" waitingTime="6.00" waitingCount="2" stopTime="0.00" timeLoss="28.22" rerouteNo="1" devices="tripinfo_h17600c1:1 routing_h17600c1:1 emissions_h17600c1:1" vType="default_016" speedFactor="1.00" vaporized="">
        <emissions CO_abs="5110.274660" CO2_abs="416286.770101" HC_abs="32.953251" PMx_abs="6.660843" NOx_abs="163.719486" fuel_abs="178.944031" electricity_abs="0"/>
    </tripinfo>
    <tripinfo id="carIn107084:1" depart="57601.00" departLane="124812856#0_1" departPos="5.10" departSpeed="0.00" departDelay="0.70" arrival="57845.00" arrivalLane="-128361102#1_1" arrivalPos="274.68" arrivalSpeed="10.85" duration="244.00" routeLength="2250.49" waitingTime="21.00" waitingCount="1" stopTime="0.00" timeLoss="49.23" rerouteNo="1" devices="tripinfo_carIn107084:1 routing_carIn107084:1 emissions_carIn107084:1" vType="default_016" speedFactor="0.85" vaporized="">
        <emissions CO_abs="9482.502512" CO2_abs="512493.151474" HC_abs="55.010668" PMx_abs="8.168593" NOx_abs="203.812754" fuel_abs="220.301607" electricity_abs="0"/>
    </tripinfo>
    <tripinfo id="carIn77943:1" depart="57608.00" departLane="124812856#0_1" departPos="5.10" departSpeed="0.00" departDelay="2.50" arrival="57847.00" arrivalLane="-128361102#1_1" arrivalPos="274.68" arrivalSpeed="12.44" duration="239.00" routeLength="2250.49" waitingTime="20.00" waitingCount="1" stopTime="0.00" timeLoss="69.03" rerouteNo="1" devices="tripinfo_carIn77943:1 routing_carIn77943:1 emissions_carIn77943:1" vType="default_016" speedFactor="0.97" vaporized="">
        <emissions CO_abs="10769.959164" CO2_abs="591271.619304" HC_abs="62.864622" PMx_abs="10.319985" NOx_abs="241.280228" fuel_abs="254.163969" electricity_abs="0"/>
    </tripinfo>
    <tripinfo id="carIn118591:1" depart="57689.00" departLane="315358244_1" departPos="5.10" departSpeed="0.00" departDelay="0.20" arrival="57847.00" arrivalLane="386687235_1" arrivalPos="80.84" arrivalSpeed="12.59" duration="158.00" routeLength="1186.14" waitingTime="42.00" waitingCount="3" stopTime="0.00" timeLoss="65.15" rerouteNo="1" devices="tripinfo_carIn118591:1 routing_carIn118591:1 emissions_carIn118591:1" vType="default_016" speedFactor="0.93" vaporized="">
        <emissions CO_abs="8665.818315" CO2_abs="357143.569914" HC_abs="47.798560" PMx_abs="6.491683" NOx_abs="147.061720" fuel_abs="153.523195" electricity_abs="0"/>
    </tripinfo>
    <tripinfo id="randUni15030:1" depart="57735.00" departLane="386687232#0_1" departPos="5.10" departSpeed="0.00" departDelay="0.10" arrival="57847.00" arrivalLane="26677539_1" arrivalPos="151.98" arrivalSpeed="6.78" duration="112.00" routeLength="919.89" waitingTime="5.00" waitingCount="1" stopTime="0.00" timeLoss="19.72" rerouteNo="1" devices="tripinfo_randUni15030:1 routing_randUni15030:1 emissions_randUni15030:1" vType="random_016" speedFactor="0.90" vaporized="">
        <emissions CO_abs="4217.442284" CO2_abs="228354.974846" HC_abs="24.482439" PMx_abs="3.719490" NOx_abs="91.952640" fuel_abs="98.161056" electricity_abs="0"/>
    </tripinfo>
    <tripinfo id="carIn81860:1" depart="57712.00" departLane="128361102#0_1" departPos="5.10" departSpeed="0.00" departDelay="0.60" arrival="57849.00" arrivalLane="-24634517#17_1" arrivalPos="6.43" arrivalSpeed="8.05" duration="137.00" routeLength="1229.64" waitingTime="32.00" waitingCount="2" stopTime="0.00" timeLoss="52.31" rerouteNo="1" devices="tripinfo_carIn81860:1 routing_carIn81860:1 emissions_carIn81860:1" vType="default_016" speedFactor="1.06" vaporized="">
        <emissions CO_abs="7446.689647" CO2_abs="333843.950376" HC_abs="41.732809" PMx_abs="6.294289" NOx_abs="138.324002" fuel_abs="143.506676" electricity_abs="0"/>
    </tripinfo>
    <tripinfo id="h15382c1:3" depart="57626.00" departLane="124812856#0_1" departPos="5.10" departSpeed="0.00" departDelay="3.80" arrival="57850.00" arrivalLane="-128361102#1_1" arrivalPos="274.68" arrivalSpeed="17.81" duration="224.00" routeLength="2232.46" waitingTime="17.00" waitingCount="3" stopTime="0.00" timeLoss="96.94" rerouteNo="1" devices="tripinfo_h15382c1:3 routing_h15382c1:3 emissions_h15382c1:3" vType="default_016" speedFactor="1.29" vaporized="">
        <emissions CO_abs="12397.060171" CO2_abs="710740.004610" HC_abs="73.291821" PMx_abs="13.602175" NOx_abs="296.518981" fuel_abs="305.516462" electricity_abs="0"/>
    </tripinfo>
    <tripinfo id="carIn82278:1" depart="57702.00" departLane="-306240162#1_0" departPos="5.10" departSpeed="0.00" departDelay="0.70" arrival="57852.00" arrivalLane="399835085#1_1" arrivalPos="212.23" arrivalSpeed="7.83" duration="150.00" routeLength="1093.26" waitingTime="43.00" waitingCount="3" stopTime="0.00" timeLoss="75.75" rerouteNo="1" devices="tripinfo_carIn82278:1 routing_carIn82278:1 emissions_carIn82278:1" vType="default_016" speedFactor="1.05" vaporized="">
        <emissions CO_abs="11003.262929" CO2_abs="434030.892539" HC_abs="60.445978" PMx_abs="8.996115" NOx_abs="185.242402" fuel_abs="186.573073" electricity_abs="0"/>
    </tripinfo>