<?xml version="1.0" encoding="UTF-8"?>

<!-- generated on 2021-10-26 12:16:18 by Eclipse SUMO sumo Version 1.10.0
<configuration xmlns:xsi="http://www.w3.org/2001/XMLSchema-instance" xsi:noNamespaceSchemaLocation="http://sumo.dlr.de/xsd/sumoConfiguration.xsd">

    <input>
        <net-file value="/Users/behradkoohy/sumo-scratchpad/RESCO/environments/ingolstadt21/ingolstadt21.net.xml"/>
        <route-files value="/Users/behradkoohy/sumo-scratchpad/RESCO/environments/ingolstadt21/ingolstadt21.rou.xml"/>
    </input>

    <output>
        <tripinfo-output value="/Users/behradkoohy/sumo-scratchpad/RESCO/logs/MAXWAVE-tr0-ingolstadt21-21-wave-wait/tripinfo_83.xml"/>
        <tripinfo-output.write-unfinished value="true"/>
    </output>

    <time>
        <begin value="57600"/>
        <end value="61200"/>
    </time>

    <processing>
        <time-to-teleport value="-1"/>
    </processing>

    <report>
        <no-warnings value="true"/>
        <no-step-log value="true"/>
    </report>

    <emissions>
        <device.emissions.probability value="1"/>
    </emissions>

    <traci_server>
        <remote-port value="58138"/>
    </traci_server>

    <random_number>
        <random value="true"/>
    </random_number>

</configuration>
-->

<tripinfos xmlns:xsi="http://www.w3.org/2001/XMLSchema-instance" xsi:noNamespaceSchemaLocation="http://sumo.dlr.de/xsd/tripinfo_file.xsd">
    <tripinfo id="h15454c2:3" depart="57612.00" departLane="24608844_1" departPos="5.10" departSpeed="0.00" departDelay="0.50" arrival="57654.00" arrivalLane="32978638#0_1" arrivalPos="49.29" arrivalSpeed="13.01" duration="42.00" routeLength="354.79" waitingTime="0.00" waitingCount="0" stopTime="0.00" timeLoss="6.27" rerouteNo="1" devices="tripinfo_h15454c2:3 routing_h15454c2:3 emissions_h15454c2:3" vType="default_016" speedFactor="0.97" vaporized="">
        <emissions CO_abs="2184.678216" CO2_abs="116344.091456" HC_abs="12.665228" PMx_abs="2.051174" NOx_abs="47.921676" fuel_abs="50.011654" electricity_abs="0"/>
    </tripinfo>
    <tripinfo id="carIn60260:1" depart="57606.00" departLane="315358254#0_1" departPos="5.10" departSpeed="0.00" departDelay="0.90" arrival="57662.00" arrivalLane="399835085#1_1" arrivalPos="212.23" arrivalSpeed="7.19" duration="56.00" routeLength="430.98" waitingTime="0.00" waitingCount="0" stopTime="0.00" timeLoss="7.51" rerouteNo="1" devices="tripinfo_carIn60260:1 routing_carIn60260:1 emissions_carIn60260:1" vType="default_016" speedFactor="0.96" vaporized="">
        <emissions CO_abs="2331.609793" CO2_abs="115846.886055" HC_abs="13.288163" PMx_abs="1.898050" NOx_abs="46.908062" fuel_abs="49.798266" electricity_abs="0"/>
    </tripinfo>
    <tripinfo id="carIn53971:1" depart="57640.00" departLane="272042143_1" departPos="5.10" departSpeed="0.00" departDelay="0.80" arrival="57692.00" arrivalLane="24634414#1_1" arrivalPos="162.19" arrivalSpeed="8.48" duration="52.00" routeLength="493.04" waitingTime="0.00" waitingCount="0" stopTime="0.00" timeLoss="9.38" rerouteNo="1" devices="tripinfo_carIn53971:1 routing_carIn53971:1 emissions_carIn53971:1" vType="default_016" speedFactor="1.08" vaporized="">
        <emissions CO_abs="2424.171494" CO2_abs="139059.903332" HC_abs="14.293275" PMx_abs="2.515238" NOx_abs="57.476767" fuel_abs="59.776031" electricity_abs="0"/>
    </tripinfo>
    <tripinfo id="h12244c1:3" depart="57612.00" departLane="315358244_1" departPos="5.10" departSpeed="0.00" departDelay="0.40" arrival="57702.00" arrivalLane="386687235_1" arrivalPos="80.84" arrivalSpeed="13.76" duration="90.00" routeLength="1186.14" waitingTime="0.00" waitingCount="0" stopTime="0.00" timeLoss="8.49" rerouteNo="1" devices="tripinfo_h12244c1:3 routing_h12244c1:3 emissions_h12244c1:3" vType="default_016" speedFactor="1.07" vaporized="">
        <emissions CO_abs="2615.620138" CO2_abs="238763.302178" HC_abs="17.473633" PMx_abs="3.799894" NOx_abs="93.128727" fuel_abs="102.634047" electricity_abs="0"/>
    </tripinfo>
    <tripinfo id="S5R_frequency1.2" depart="57612.00" departLane="315358250#0_1" departPos="12.10" departSpeed="0.00" departDelay="0.40" arrival="57706.00" arrivalLane="386687235_1" arrivalPos="80.84" arrivalSpeed="13.66" duration="94.00" routeLength="1115.62" waitingTime="0.00" waitingCount="0" stopTime="0.00" timeLoss="11.99" rerouteNo="1" devices="tripinfo_S5R_frequency1.2 routing_S5R_frequency1.2 emissions_S5R_frequency1.2" vType="bus" speedFactor="1.00" vaporized="">
        <emissions CO_abs="1887.174736" CO2_abs="1197730.700157" HC_abs="398.868281" PMx_abs="202.774269" NOx_abs="9249.715098" fuel_abs="510.825957" electricity_abs="0"/>
    </tripinfo>
    <tripinfo id="carIn80064:1" depart="57603.00" departLane="128361109#1_1" departPos="5.10" departSpeed="0.00" departDelay="0.40" arrival="57713.00" arrivalLane="-315358254#1_1" arrivalPos="137.16" arrivalSpeed="14.82" duration="110.00" routeLength="1587.97" waitingTime="1.00" waitingCount="1" stopTime="0.00" timeLoss="28.30" rerouteNo="1" devices="tripinfo_carIn80064:1 routing_carIn80064:1 emissions_carIn80064:1" vType="default_016" speedFactor="1.10" vaporized="">
        <emissions CO_abs="7393.133936" CO2_abs="503313.316717" HC_abs="45.702893" PMx_abs="10.159633" NOx_abs="209.263256" fuel_abs="216.351099" electricity_abs="0"/>
    </tripinfo>
    <tripinfo id="h9563c2:5" depart="57631.00" departLane="315358244_1" departPos="5.10" departSpeed="0.00" departDelay="0.70" arrival="57714.00" arrivalLane="386687235_1" arrivalPos="80.84" arrivalSpeed="15.90" duration="83.00" routeLength="1186.14" waitingTime="0.00" waitingCount="0" stopTime="0.00" timeLoss="7.68" rerouteNo="1" devices="tripinfo_h9563c2:5 routing_h9563c2:5 emissions_h9563c2:5" vType="default_016" speedFactor="1.15" vaporized="">
        <emissions CO_abs="2320.567596" CO2_abs="215850.224343" HC_abs="15.408508" PMx_abs="3.539930" NOx_abs="84.300536" fuel_abs="92.784523" electricity_abs="0"/>
    </tripinfo>
    <tripinfo id="h7800c1:5" depart="57696.00" departLane="-447569998#1_1" departPos="5.10" departSpeed="0.00" departDelay="0.00" arrival="57718.00" arrivalLane="-447569998#1_1" arrivalPos="180.76" arrivalSpeed="9.23" duration="22.00" routeLength="175.66" waitingTime="0.00" waitingCount="0" stopTime="0.00" timeLoss="3.08" rerouteNo="1" devices="tripinfo_h7800c1:5 routing_h7800c1:5 emissions_h7800c1:5" vType="default_016" speedFactor="1.11" vaporized="">
        <emissions CO_abs="1067.837882" CO2_abs="50372.941780" HC_abs="6.020856" PMx_abs="0.821053" NOx_abs="20.406230" fuel_abs="21.653502" electricity_abs="0"/>
    </tripinfo>
    <tripinfo id="h3688c1:1" depart="57625.00" departLane="201201950#1_1" departPos="5.10" departSpeed="0.00" departDelay="0.00" arrival="57720.00" arrivalLane="32978638#0_1" arrivalPos="49.29" arrivalSpeed="12.53" duration="95.00" routeLength="1089.75" waitingTime="0.00" waitingCount="0" stopTime="0.00" timeLoss="14.57" rerouteNo="1" devices="tripinfo_h3688c1:1 routing_h3688c1:1 emissions_h3688c1:1" vType="default_016" speedFactor="0.99" vaporized="">
        <emissions CO_abs="3662.403240" CO2_abs="271681.175494" HC_abs="23.039431" PMx_abs="4.523050" NOx_abs="108.538188" fuel_abs="116.784176" electricity_abs="0"/>
    </tripinfo>
    <tripinfo id="h317c2:1" depart="57707.00" departLane="-32978638#0_1" departPos="5.10" departSpeed="0.00" departDelay="0.10" arrival="57744.00" arrivalLane="-266565295#5_1" arrivalPos="172.76" arrivalSpeed="13.30" duration="37.00" routeLength="370.53" waitingTime="3.00" waitingCount="1" stopTime="0.00" timeLoss="9.95" rerouteNo="1" devices="tripinfo_h317c2:1 routing_h317c2:1 emissions_h317c2:1" vType="default_016" speedFactor="1.01" vaporized="">
        <emissions CO_abs="1958.677083" CO2_abs="116599.364357" HC_abs="11.663997" PMx_abs="2.183851" NOx_abs="48.502473" fuel_abs="50.121026" electricity_abs="0"/>
    </tripinfo>
    <tripinfo id="h3568c1:3" depart="57656.00" departLane="266565295#5_1" departPos="5.10" departSpeed="0.00" departDelay="0.80" arrival="57746.00" arrivalLane="-24634415_1" arrivalPos="62.03" arrivalSpeed="13.79" duration="90.00" routeLength="807.40" waitingTime="7.00" waitingCount="1" stopTime="0.00" timeLoss="26.03" rerouteNo="1" devices="tripinfo_h3568c1:3 routing_h3568c1:3 emissions_h3568c1:3" vType="default_016" speedFactor="1.01" vaporized="">
        <emissions CO_abs="4598.898125" CO2_abs="248702.009944" HC_abs="26.813378" PMx_abs="4.661109" NOx_abs="103.684189" fuel_abs="106.906581" electricity_abs="0"/>
    </tripinfo>
    <tripinfo id="h7181c1:1" depart="57660.00" departLane="315358254#0_1" departPos="5.10" departSpeed="0.00" departDelay="0.10" arrival="57749.00" arrivalLane="306240162#0_0" arrivalPos="220.43" arrivalSpeed="18.65" duration="89.00" routeLength="932.35" waitingTime="23.00" waitingCount="2" stopTime="0.00" timeLoss="45.68" rerouteNo="1" devices="tripinfo_h7181c1:1 routing_h7181c1:1 emissions_h7181c1:1" vType="default_016" speedFactor="1.17" vaporized="">
        <emissions CO_abs="8537.795931" CO2_abs="395799.066542" HC_abs="48.411163" PMx_abs="8.520499" NOx_abs="169.491431" fuel_abs="170.137076" electricity_abs="0"/>
    </tripinfo>
    <tripinfo id="carIn22761:1" depart="57616.00" departLane="-306240162#1_0" departPos="5.10" departSpeed="0.00" departDelay="2.10" arrival="57757.00" arrivalLane="399835085#1_1" arrivalPos="212.23" arrivalSpeed="7.78" duration="141.00" routeLength="1093.26" waitingTime="42.00" waitingCount="1" stopTime="0.00" timeLoss="58.83" rerouteNo="1" devices="tripinfo_carIn22761:1 routing_carIn22761:1 emissions_carIn22761:1" vType="default_016" speedFactor="0.95" vaporized="">
        <emissions CO_abs="10301.949679" CO2_abs="365394.386030" HC_abs="55.518247" PMx_abs="7.201224" NOx_abs="152.763773" fuel_abs="157.070434" electricity_abs="0"/>
    </tripinfo>
    <tripinfo id="carIn30817:1" depart="57681.00" departLane="315358244_1" departPos="5.10" departSpeed="0.00" departDelay="0.20" arrival="57757.00" arrivalLane="447569997#1_1" arrivalPos="180.93" arrivalSpeed="6.84" duration="76.00" routeLength="718.04" waitingTime="0.00" waitingCount="0" stopTime="0.00" timeLoss="7.09" rerouteNo="1" devices="tripinfo_carIn30817:1 routing_carIn30817:1 emissions_carIn30817:1" vType="default_016" speedFactor="0.90" vaporized="">
        <emissions CO_abs="2334.473931" CO2_abs="143733.811403" HC_abs="13.943338" PMx_abs="2.223855" NOx_abs="56.867563" fuel_abs="61.785591" electricity_abs="0"/>
    </tripinfo>
    <tripinfo id="h5979c1:5" depart="57669.00" departLane="399835085#1_1" departPos="5.10" departSpeed="0.00" departDelay="0.00" arrival="57758.00" arrivalLane="-315358254#1_1" arrivalPos="137.16" arrivalSpeed="12.20" duration="89.00" routeLength="659.33" waitingTime="0.00" waitingCount="0" stopTime="0.00" timeLoss="13.11" rerouteNo="1" devices="tripinfo_h5979c1:5 routing_h5979c1:5 emissions_h5979c1:5" vType="default_016" speedFactor="0.97" vaporized="">
        <emissions CO_abs="3798.883564" CO2_abs="178162.749486" HC_abs="21.392121" PMx_abs="2.891883" NOx_abs="72.122902" fuel_abs="76.585745" electricity_abs="0"/>
    </tripinfo>
    <tripinfo id="h4538c1:1" depart="57701.00" departLane="-10427692#1_1" departPos="5.10" departSpeed="0.00" departDelay="0.00" arrival="57767.00" arrivalLane="-128361102#1_1" arrivalPos="274.68" arrivalSpeed="12.79" duration="66.00" routeLength="440.74" waitingTime="24.00" waitingCount="1" stopTime="0.00" timeLoss="32.83" rerouteNo="1" devices="tripinfo_h4538c1:1 routing_h4538c1:1 emissions_h4538c1:1" vType="default_016" speedFactor="0.96" vaporized="">
        <emissions CO_abs="4883.496988" CO2_abs="170782.682693" HC_abs="26.221385" PMx_abs="3.251909" NOx_abs="71.283938" fuel_abs="73.413747" electricity_abs="0"/>
    </tripinfo>
    <tripinfo id="h330c1:1" depart="57736.00" departLane="-32978638#0_1" departPos="5.10" departSpeed="0.00" departDelay="0.20" arrival="57776.00" arrivalLane="-266565295#5_1" arrivalPos="172.76" arrivalSpeed="12.25" duration="40.00" routeLength="370.53" waitingTime="2.00" waitingCount="1" stopTime="0.00" timeLoss="10.23" rerouteNo="1" devices="tripinfo_h330c1:1 routing_h330c1:1 emissions_h330c1:1" vType="default_016" speedFactor="0.92" vaporized="">
        <emissions CO_abs="1991.526077" CO2_abs="113200.701051" HC_abs="11.735934" PMx_abs="2.082909" NOx_abs="47.009951" fuel_abs="48.660207" electricity_abs="0"/>
    </tripinfo>
    <tripinfo id="h645c1:1" depart="57622.00" departLane="266565295#5_1" departPos="5.10" departSpeed="0.00" departDelay="0.40" arrival="57777.00" arrivalLane="-315358244_1" arrivalPos="33.95" arrivalSpeed="12.44" duration="155.00" routeLength="1910.83" waitingTime="0.00" waitingCount="0" stopTime="0.00" timeLoss="11.06" rerouteNo="1" devices="tripinfo_h645c1:1 routing_h645c1:1 emissions_h645c1:1" vType="default_016" speedFactor="0.96" vaporized="">
        <emissions CO_abs="3531.209230" CO2_abs="326805.288151" HC_abs="23.664650" PMx_abs="4.982539" NOx_abs="126.796972" fuel_abs="140.479719" electricity_abs="0"/>
    </tripinfo>
    <tripinfo id="carIn27009:1" depart="57673.00" departLane="-447569998#1_1" departPos="5.10" departSpeed="0.00" departDelay="0.50" arrival="57779.00" arrivalLane="-26677539_1" arrivalPos="152.75" arrivalSpeed="8.34" duration="106.00" routeLength="699.63" waitingTime="13.00" waitingCount="1" stopTime="0.00" timeLoss="27.28" rerouteNo="1" devices="tripinfo_carIn27009:1 routing_carIn27009:1 emissions_carIn27009:1" vType="default_015" speedFactor="1.07" vaporized="">
        <emissions CO_abs="5083.489489" CO2_abs="204820.315883" HC_abs="27.876654" PMx_abs="3.556106" NOx_abs="84.425406" fuel_abs="88.045129" electricity_abs="0"/>
    </tripinfo>
    <tripinfo id="carIn118591:1" depart="57689.00" departLane="315358244_1" departPos="5.10" departSpeed="0.00" departDelay="0.20" arrival="57783.00" arrivalLane="386687235_1" arrivalPos="80.84" arrivalSpeed="13.17" duration="94.00" routeLength="1186.14" waitingTime="0.00" waitingCount="0" stopTime="0.00" timeLoss="8.70" rerouteNo="1" devices="tripinfo_carIn118591:1 routing_carIn118591:1 emissions_carIn118591:1" vType="default_016" speedFactor="1.01" vaporized="">
        <emissions CO_abs="2434.531921" CO2_abs="217826.153261" HC_abs="16.117065" PMx_abs="3.375503" NOx_abs="84.648304" fuel_abs="93.634217" electricity_abs="0"/>
    </tripinfo>
    <tripinfo id="h3154c1:1" depart="57658.00" departLane="24634507_1" departPos="5.10" departSpeed="0.00" departDelay="0.00" arrival="57786.00" arrivalLane="-266565295#5_1" arrivalPos="172.76" arrivalSpeed="14.10" duration="128.00" routeLength="1206.22" waitingTime="16.00" waitingCount="3" stopTime="0.00" timeLoss="41.05" rerouteNo="1" devices="tripinfo_h3154c1:1 routing_h3154c1:1 emissions_h3154c1:1" vType="default_016" speedFactor="1.02" vaporized="">
        <emissions CO_abs="6332.577057" CO2_abs="355173.693360" HC_abs="37.207187" PMx_abs="6.557554" NOx_abs="146.803789" fuel_abs="152.674314" electricity_abs="0"/>
    </tripinfo>
    <tripinfo id="h3326c1:2" depart="57656.00" departLane="22716069#0_1" departPos="5.10" departSpeed="0.00" departDelay="0.00" arrival="57788.00" arrivalLane="24634517#13_1" arrivalPos="111.62" arrivalSpeed="10.90" duration="132.00" routeLength="1312.81" waitingTime="0.00" waitingCount="0" stopTime="0.00" timeLoss="15.32" rerouteNo="1" devices="tripinfo_h3326c1:2 routing_h3326c1:2 emissions_h3326c1:2" vType="default_016" speedFactor="0.84" vaporized="">
        <emissions CO_abs="4383.123466" CO2_abs="293580.353321" HC_abs="26.761896" PMx_abs="4.667588" NOx_abs="116.972729" fuel_abs="126.198286" electricity_abs="0"/>
    </tripinfo>
    <tripinfo id="carIn12365:1" depart="57713.00" departLane="315358244_1" departPos="5.10" departSpeed="0.00" departDelay="0.50" arrival="57790.00" arrivalLane="447569997#1_1" arrivalPos="180.93" arrivalSpeed="7.36" duration="77.00" routeLength="718.04" waitingTime="7.00" waitingCount="1" stopTime="0.00" timeLoss="16.62" rerouteNo="1" devices="tripinfo_carIn12365:1 routing_carIn12365:1 emissions_carIn12365:1" vType="default_016" speedFactor="1.03" vaporized="">
        <emissions CO_abs="2571.444748" CO2_abs="151673.718161" HC_abs="15.157201" PMx_abs="2.391651" NOx_abs="59.977626" fuel_abs="65.198695" electricity_abs="0"/>
    </tripinfo>
    <tripinfo id="carIn129809:1" depart="57729.00" departLane="-447569998#1_1" departPos="5.10" departSpeed="0.00" departDelay="1.00" arrival="57793.00" arrivalLane="-315358244_1" arrivalPos="33.95" arrivalSpeed="14.18" duration="64.00" routeLength="706.49" waitingTime="0.00" waitingCount="0" stopTime="0.00" timeLoss="9.79" rerouteNo="1" devices="tripinfo_carIn129809:1 routing_carIn129809:1 emissions_carIn129809:1" vType="default_015" speedFactor="1.10" vaporized="">
        <emissions CO_abs="2403.300214" CO2_abs="161532.144317" HC_abs="14.595891" PMx_abs="2.664083" NOx_abs="64.198067" fuel_abs="69.436022" electricity_abs="0"/>
    </tripinfo>
    <tripinfo id="carIn107282:1" depart="57749.00" departLane="-447569998#1_1" departPos="5.10" departSpeed="0.00" departDelay="0.00" arrival="57795.00" arrivalLane="315358242#0_1" arrivalPos="165.37" arrivalSpeed="13.20" duration="46.00" routeLength="448.50" waitingTime="0.00" waitingCount="0" stopTime="0.00" timeLoss="5.73" rerouteNo="1" devices="tripinfo_carIn107282:1 routing_carIn107282:1 emissions_carIn107282:1" vType="default_016" speedFactor="1.03" vaporized="">
        <emissions CO_abs="1755.578377" CO2_abs="104684.918992" HC_abs="10.413179" PMx_abs="1.699364" NOx_abs="41.867943" fuel_abs="44.999917" electricity_abs="0"/>
    </tripinfo>
    <tripinfo id="h11737c1:1" depart="57665.00" departLane="272042143_1" departPos="5.10" departSpeed="0.00" departDelay="1.50" arrival="57797.00" arrivalLane="-315358254#1_1" arrivalPos="137.16" arrivalSpeed="13.59" duration="132.00" routeLength="1596.88" waitingTime="0.00" waitingCount="0" stopTime="0.00" timeLoss="13.13" rerouteNo="1" devices="tripinfo_h11737c1:1 routing_h11737c1:1 emissions_h11737c1:1" vType="default_016" speedFactor="0.98" vaporized="">
        <emissions CO_abs="3615.586969" CO2_abs="314144.600024" HC_abs="23.773711" PMx_abs="4.920831" NOx_abs="122.986773" fuel_abs="135.037389" electricity_abs="0"/>
    </tripinfo>
    <tripinfo id="carIn86816:1" depart="57617.00" departLane="128361102#0_1" departPos="5.10" departSpeed="0.00" departDelay="0.80" arrival="57799.00" arrivalLane="201956811#0_1" arrivalPos="40.40" arrivalSpeed="12.83" duration="182.00" routeLength="2067.33" waitingTime="0.00" waitingCount="0" stopTime="0.00" timeLoss="20.22" rerouteNo="1" devices="tripinfo_carIn86816:1 routing_carIn86816:1 emissions_carIn86816:1" vType="default_016" speedFactor="0.94" vaporized="">
        <emissions CO_abs="5319.247518" CO2_abs="417254.521402" HC_abs="33.931323" PMx_abs="6.600707" NOx_abs="164.507544" fuel_abs="179.360224" electricity_abs="0"/>
    </tripinfo>
    <tripinfo id="carIn82278:1" depart="57702.00" departLane="-306240162#1_0" departPos="5.10" departSpeed="0.00" departDelay="0.70" arrival="57803.00" arrivalLane="399835085#1_1" arrivalPos="212.23" arrivalSpeed="8.58" duration="101.00" routeLength="1093.26" waitingTime="8.00" waitingCount="1" stopTime="0.00" timeLoss="24.82" rerouteNo="1" devices="tripinfo_carIn82278:1 routing_carIn82278:1 emissions_carIn82278:1" vType="default_016" speedFactor="1.04" vaporized="">
        <emissions CO_abs="5114.138500" CO2_abs="300111.280737" HC_abs="30.382343" PMx_abs="5.619434" NOx_abs="122.721723" fuel_abs="129.005149" electricity_abs="0"/>
    </tripinfo>
    <tripinfo id="carIn48184:1" depart="57613.00" departLane="-306240162#1_0" departPos="5.10" departSpeed="0.00" departDelay="0.70" arrival="57804.00" arrivalLane="386687235_1" arrivalPos="80.84" arrivalSpeed="11.99" duration="191.00" routeLength="2257.41" waitingTime="9.00" waitingCount="1" stopTime="0.00" timeLoss="32.68" rerouteNo="1" devices="tripinfo_carIn48184:1 routing_carIn48184:1 emissions_carIn48184:1" vType="default_016" speedFactor="0.94" vaporized="">
        <emissions CO_abs="7047.321553" CO2_abs="506010.031179" HC_abs="43.997691" PMx_abs="8.631504" NOx_abs="201.845502" fuel_abs="217.512228" electricity_abs="0"/>
    </tripinfo>
    <tripinfo id="carIn28951:1" depart="57606.00" departLane="10425609#0_1" departPos="5.10" departSpeed="0.00" departDelay="0.20" arrival="57806.00" arrivalLane="-128361102#1_1" arrivalPos="274.68" arrivalSpeed="10.84" duration="200.00" routeLength="2113.04" waitingTime="0.00" waitingCount="0" stopTime="0.00" timeLoss="21.33" rerouteNo="1" devices="tripinfo_carIn28951:1 routing_carIn28951:1 emissions_carIn28951:1" vType="default_016" speedFactor="0.87" vaporized="">
        <emissions CO_abs="5793.808318" CO2_abs="427228.708346" HC_abs="36.251694" PMx_abs="6.478154" NOx_abs="167.406628" fuel_abs="183.648354" electricity_abs="0"/>
    </tripinfo>
    <tripinfo id="carIn107084:1" depart="57601.00" departLane="124812856#0_1" departPos="5.10" departSpeed="0.00" departDelay="0.70" arrival="57807.00" arrivalLane="-128361102#1_1" arrivalPos="274.68" arrivalSpeed="13.22" duration="206.00" routeLength="2250.49" waitingTime="2.00" waitingCount="1" stopTime="0.00" timeLoss="40.44" rerouteNo="1" devices="tripinfo_carIn107084:1 routing_carIn107084:1 emissions_carIn107084:1" vType="default_016" speedFactor="0.99" vaporized="">
        <emissions CO_abs="7202.762857" CO2_abs="501241.572796" HC_abs="44.564697" PMx_abs="8.651207" NOx_abs="203.383738" fuel_abs="215.462215" electricity_abs="0"/>
    </tripinfo>
    <tripinfo id="carIn12858:1" depart="57661.00" departLane="128361109#1_1" departPos="5.10" departSpeed="0.00" departDelay="0.90" arrival="57807.00" arrivalLane="399835085#1_1" arrivalPos="212.23" arrivalSpeed="7.17" duration="146.00" routeLength="1738.12" waitingTime="1.00" waitingCount="1" stopTime="0.00" timeLoss="30.29" rerouteNo="1" devices="tripinfo_carIn12858:1 routing_carIn12858:1 emissions_carIn12858:1" vType="default_016" speedFactor="1.00" vaporized="">
        <emissions CO_abs="7452.481827" CO2_abs="478704.123931" HC_abs="45.377553" PMx_abs="9.234863" NOx_abs="198.224857" fuel_abs="205.773579" electricity_abs="0"/>
    </tripinfo>
    <tripinfo id="h17600c1:1" depart="57662.00" departLane="272042143_1" departPos="5.10" departSpeed="0.00" departDelay="0.30" arrival="57807.00" arrivalLane="201238729#3_1" arrivalPos="431.02" arrivalSpeed="14.32" duration="145.00" routeLength="2100.26" waitingTime="0.00" waitingCount="0" stopTime="0.00" timeLoss="9.74" rerouteNo="1" devices="tripinfo_h17600c1:1 routing_h17600c1:1 emissions_h17600c1:1" vType="default_016" speedFactor="1.12" vaporized="">
        <emissions CO_abs="3332.433140" CO2_abs="368860.256926" HC_abs="23.501649" PMx_abs="5.753124" NOx_abs="141.469012" fuel_abs="158.556806" electricity_abs="0"/>
    </tripinfo>
    <tripinfo id="carIn77943:1" depart="57608.00" departLane="124812856#0_1" departPos="5.10" departSpeed="0.00" departDelay="2.50" arrival="57814.00" arrivalLane="-128361102#1_1" arrivalPos="274.68" arrivalSpeed="11.45" duration="206.00" routeLength="2250.49" waitingTime="0.00" waitingCount="0" stopTime="0.00" timeLoss="23.16" rerouteNo="1" devices="tripinfo_carIn77943:1 routing_carIn77943:1 emissions_carIn77943:1" vType="default_016" speedFactor="0.90" vaporized="">
        <emissions CO_abs="6298.190508" CO2_abs="480704.088777" HC_abs="39.845439" PMx_abs="7.546892" NOx_abs="189.684466" fuel_abs="206.634712" electricity_abs="0"/>
    </tripinfo>
    <tripinfo id="carIn77438:1" depart="57614.00" departLane="124812856#0_1" departPos="5.10" departSpeed="0.00" departDelay="1.10" arrival="57815.00" arrivalLane="-128361102#1_1" arrivalPos="274.68" arrivalSpeed="13.54" duration="201.00" routeLength="2250.49" waitingTime="0.00" waitingCount="0" stopTime="0.00" timeLoss="46.79" rerouteNo="1" devices="tripinfo_carIn77438:1 routing_carIn77438:1 emissions_carIn77438:1" vType="default_016" speedFactor="1.06" vaporized="">
        <emissions CO_abs="6898.182427" CO2_abs="525511.791051" HC_abs="43.639605" PMx_abs="8.636116" NOx_abs="209.817063" fuel_abs="225.895097" electricity_abs="0"/>
    </tripinfo>
    <tripinfo id="carIn50326:1" depart="57651.00" departLane="128361102#0_1" departPos="5.10" departSpeed="0.00" departDelay="0.30" arrival="57816.00" arrivalLane="18809673#0_1" arrivalPos="473.56" arrivalSpeed="12.06" duration="165.00" routeLength="1591.07" waitingTime="1.00" waitingCount="1" stopTime="0.00" timeLoss="20.90" rerouteNo="1" devices="tripinfo_carIn50326:1 routing_carIn50326:1 emissions_carIn50326:1" vType="default_016" speedFactor="0.90" vaporized="">
        <emissions CO_abs="5002.966217" CO2_abs="324180.748251" HC_abs="30.280097" PMx_abs="5.084888" NOx_abs="128.389347" fuel_abs="139.352434" electricity_abs="0"/>
    </tripinfo>
    <tripinfo id="h19804c1:3" depart="57617.00" departLane="124812856#0_1" departPos="5.10" departSpeed="0.00" departDelay="1.50" arrival="57817.00" arrivalLane="-128361102#1_1" arrivalPos="274.68" arrivalSpeed="15.00" duration="200.00" routeLength="2250.49" waitingTime="0.00" waitingCount="0" stopTime="0.00" timeLoss="50.30" rerouteNo="1" devices="tripinfo_h19804c1:3 routing_h19804c1:3 emissions_h19804c1:3" vType="default_016" speedFactor="1.10" vaporized="">
        <emissions CO_abs="8166.026005" CO2_abs="579624.561261" HC_abs="50.856623" PMx_abs="10.352785" NOx_abs="237.320292" fuel_abs="249.155033" electricity_abs="0"/>
    </tripinfo>
    <tripinfo id="carIn126288:1" depart="57674.00" departLane="272042143_1" departPos="5.10" departSpeed="0.00" departDelay="0.00" arrival="57817.00" arrivalLane="-315358254#1_1" arrivalPos="137.16" arrivalSpeed="13.26" duration="143.00" routeLength="1596.88" waitingTime="8.00" waitingCount="1" stopTime="0.00" timeLoss="21.16" rerouteNo="1" devices="tripinfo_carIn126288:1 routing_carIn126288:1 emissions_carIn126288:1" vType="default_016" speedFactor="0.96" vaporized="">
        <emissions CO_abs="4479.798174" CO2_abs="338199.205482" HC_abs="28.288815" PMx_abs="5.442985" NOx_abs="133.620134" fuel_abs="145.377694" electricity_abs="0"/>
    </tripinfo>
    <tripinfo id="carIn107842:1" depart="57623.00" departLane="124812856#0_1" departPos="5.10" departSpeed="0.00" departDelay="1.90" arrival="57819.00" arrivalLane="-128361102#1_1" arrivalPos="274.68" arrivalSpeed="13.85" duration="196.00" routeLength="2250.49" waitingTime="0.00" waitingCount="0" stopTime="0.00" timeLoss="40.67" rerouteNo="1" devices="tripinfo_carIn107842:1 routing_carIn107842:1 emissions_carIn107842:1" vType="default_016" speedFactor="1.06" vaporized="">
        <emissions CO_abs="7339.854774" CO2_abs="540393.234073" HC_abs="46.110457" PMx_abs="9.472308" NOx_abs="219.582149" fuel_abs="232.291302" electricity_abs="0"/>
    </tripinfo>
    <tripinfo id="carIn3969:1" depart="57629.00" departLane="124812856#0_1" departPos="5.10" departSpeed="0.00" departDelay="5.30" arrival="57821.00" arrivalLane="-128361102#1_1" arrivalPos="274.68" arrivalSpeed="13.70" duration="192.00" routeLength="2250.49" waitingTime="0.00" waitingCount="0" stopTime="0.00" timeLoss="31.55" rerouteNo="1" devices="tripinfo_carIn3969:1 routing_carIn3969:1 emissions_carIn3969:1" vType="default_016" speedFactor="1.03" vaporized="">
        <emissions CO_abs="6968.167810" CO2_abs="523743.839678" HC_abs="43.993453" PMx_abs="9.070587" NOx_abs="211.775007" fuel_abs="225.134533" electricity_abs="0"/>
    </tripinfo>
    <tripinfo id="h8343c1:5" depart="57679.00" departLane="315358254#0_1" departPos="5.10" departSpeed="0.00" departDelay="0.60" arrival="57823.00" arrivalLane="-24634510#5_1" arrivalPos="236.88" arrivalSpeed="14.89" duration="144.00" routeLength="2056.84" waitingTime="4.00" waitingCount="1" stopTime="0.00" timeLoss="36.29" rerouteNo="1" devices="tripinfo_h8343c1:5 routing_h8343c1:5 emissions_h8343c1:5" vType="default_016" speedFactor="1.16" vaporized="">
        <emissions CO_abs="8759.116690" CO2_abs="590854.694650" HC_abs="54.066087" PMx_abs="11.855333" NOx_abs="245.564302" fuel_abs="253.981239" electricity_abs="0"/>
    </tripinfo>
    <tripinfo id="carIn82220:1" depart="57619.00" departLane="-306240162#1_0" departPos="5.10" departSpeed="0.00" departDelay="3.50" arrival="57825.00" arrivalLane="386687235_1" arrivalPos="80.84" arrivalSpeed="11.23" duration="206.00" routeLength="2257.41" waitingTime="11.00" waitingCount="2" stopTime="0.00" timeLoss="37.48" rerouteNo="1" devices="tripinfo_carIn82220:1 routing_carIn82220:1 emissions_carIn82220:1" vType="default_016" speedFactor="0.88" vaporized="">
        <emissions CO_abs="6654.026582" CO2_abs="482430.841907" HC_abs="41.481902" PMx_abs="7.985141" NOx_abs="191.798891" fuel_abs="207.376735" electricity_abs="0"/>
    </tripinfo>
    <tripinfo id="h16072c2:3" depart="57663.00" departLane="315358254#0_1" departPos="5.10" departSpeed="0.00" departDelay="2.50" arrival="57825.00" arrivalLane="386687235_2" arrivalPos="80.84" arrivalSpeed="12.67" duration="162.00" routeLength="1611.92" waitingTime="11.00" waitingCount="2" stopTime="0.00" timeLoss="37.78" rerouteNo="1" devices="tripinfo_h16072c2:3 routing_h16072c2:3 emissions_h16072c2:3" vType="default_016" speedFactor="0.95" vaporized="">
        <emissions CO_abs="5559.775467" CO2_abs="367839.285576" HC_abs="33.907960" PMx_abs="6.152490" NOx_abs="147.764695" fuel_abs="158.118861" electricity_abs="0"/>
    </tripinfo>
    <tripinfo id="carIn46110:1" depart="57684.00" departLane="315358244_1" departPos="5.10" departSpeed="0.00" departDelay="1.20" arrival="57830.00" arrivalLane="32978638#0_1" arrivalPos="49.29" arrivalSpeed="13.74" duration="146.00" routeLength="1764.04" waitingTime="7.00" waitingCount="1" stopTime="0.00" timeLoss="25.84" rerouteNo="1" devices="tripinfo_carIn46110:1 routing_carIn46110:1 emissions_carIn46110:1" vType="default_016" speedFactor="1.07" vaporized="">
        <emissions CO_abs="4463.111577" CO2_abs="357693.534842" HC_abs="28.655206" PMx_abs="5.939652" NOx_abs="141.619774" fuel_abs="153.757056" electricity_abs="0"/>
    </tripinfo>