<?xml version="1.0" encoding="UTF-8"?>

<!-- generated on 2021-10-26 11:34:25 by Eclipse SUMO sumo Version 1.10.0
<configuration xmlns:xsi="http://www.w3.org/2001/XMLSchema-instance" xsi:noNamespaceSchemaLocation="http://sumo.dlr.de/xsd/sumoConfiguration.xsd">

    <input>
        <net-file value="/Users/behradkoohy/sumo-scratchpad/RESCO/environments/ingolstadt21/ingolstadt21.net.xml"/>
        <route-files value="/Users/behradkoohy/sumo-scratchpad/RESCO/environments/ingolstadt21/ingolstadt21.rou.xml"/>
    </input>

    <output>
        <tripinfo-output value="/Users/behradkoohy/sumo-scratchpad/RESCO/logs/MAXWAVE-tr0-ingolstadt21-21-wave-wait/tripinfo_15.xml"/>
        <tripinfo-output.write-unfinished value="true"/>
    </output>

    <time>
        <begin value="57600"/>
        <end value="61200"/>
    </time>

    <processing>
        <time-to-teleport value="-1"/>
    </processing>

    <report>
        <no-warnings value="true"/>
        <no-step-log value="true"/>
    </report>

    <emissions>
        <device.emissions.probability value="1"/>
    </emissions>

    <traci_server>
        <remote-port value="57272"/>
    </traci_server>

    <random_number>
        <random value="true"/>
    </random_number>

</configuration>
-->

<tripinfos xmlns:xsi="http://www.w3.org/2001/XMLSchema-instance" xsi:noNamespaceSchemaLocation="http://sumo.dlr.de/xsd/tripinfo_file.xsd">
    <tripinfo id="carIn60260:1" depart="57606.00" departLane="315358254#0_1" departPos="5.10" departSpeed="0.00" departDelay="0.90" arrival="57654.00" arrivalLane="399835085#1_1" arrivalPos="212.23" arrivalSpeed="8.98" duration="48.00" routeLength="430.98" waitingTime="0.00" waitingCount="0" stopTime="0.00" timeLoss="7.14" rerouteNo="1" devices="tripinfo_carIn60260:1 routing_carIn60260:1 emissions_carIn60260:1" vType="default_016" speedFactor="1.15" vaporized="">
        <emissions CO_abs="1927.276893" CO2_abs="114797.783854" HC_abs="11.423629" PMx_abs="1.878795" NOx_abs="46.100568" fuel_abs="49.347007" electricity_abs="0"/>
    </tripinfo>
    <tripinfo id="h15454c2:3" depart="57612.00" departLane="24608844_1" departPos="5.10" departSpeed="0.00" departDelay="0.50" arrival="57654.00" arrivalLane="32978638#0_1" arrivalPos="49.29" arrivalSpeed="13.39" duration="42.00" routeLength="354.79" waitingTime="0.00" waitingCount="0" stopTime="0.00" timeLoss="7.07" rerouteNo="1" devices="tripinfo_h15454c2:3 routing_h15454c2:3 emissions_h15454c2:3" vType="default_016" speedFactor="0.98" vaporized="">
        <emissions CO_abs="2343.382239" CO2_abs="125355.723502" HC_abs="13.583941" PMx_abs="2.134236" NOx_abs="51.151102" fuel_abs="53.885498" electricity_abs="0"/>
    </tripinfo>
    <tripinfo id="carIn53971:1" depart="57640.00" departLane="272042143_1" departPos="5.10" departSpeed="0.00" departDelay="0.80" arrival="57706.00" arrivalLane="24634414#1_1" arrivalPos="162.19" arrivalSpeed="5.89" duration="66.00" routeLength="493.04" waitingTime="0.00" waitingCount="0" stopTime="0.00" timeLoss="9.39" rerouteNo="1" devices="tripinfo_carIn53971:1 routing_carIn53971:1 emissions_carIn53971:1" vType="default_016" speedFactor="0.81" vaporized="">
        <emissions CO_abs="2663.116515" CO2_abs="133127.073139" HC_abs="15.179260" PMx_abs="2.090217" NOx_abs="53.304921" fuel_abs="57.226502" electricity_abs="0"/>
    </tripinfo>
    <tripinfo id="S5R_frequency1.2" depart="57615.00" departLane="315358250#0_1" departPos="12.10" departSpeed="0.00" departDelay="3.40" arrival="57708.00" arrivalLane="386687235_1" arrivalPos="80.84" arrivalSpeed="13.35" duration="93.00" routeLength="1115.62" waitingTime="0.00" waitingCount="0" stopTime="0.00" timeLoss="11.88" rerouteNo="1" devices="tripinfo_S5R_frequency1.2 routing_S5R_frequency1.2 emissions_S5R_frequency1.2" vType="bus" speedFactor="1.00" vaporized="">
        <emissions CO_abs="1808.385936" CO2_abs="1145262.452620" HC_abs="383.783587" PMx_abs="194.344173" NOx_abs="8849.344419" fuel_abs="488.449211" electricity_abs="0"/>
    </tripinfo>
    <tripinfo id="carIn80064:1" depart="57603.00" departLane="128361109#1_1" departPos="5.10" departSpeed="0.00" departDelay="0.40" arrival="57712.00" arrivalLane="-315358254#1_1" arrivalPos="137.16" arrivalSpeed="15.43" duration="109.00" routeLength="1587.97" waitingTime="5.00" waitingCount="1" stopTime="0.00" timeLoss="33.99" rerouteNo="1" devices="tripinfo_carIn80064:1 routing_carIn80064:1 emissions_carIn80064:1" vType="default_016" speedFactor="1.19" vaporized="">
        <emissions CO_abs="7706.557071" CO2_abs="516857.112736" HC_abs="47.388347" PMx_abs="10.435608" NOx_abs="214.498586" fuel_abs="222.173074" electricity_abs="0"/>
    </tripinfo>
    <tripinfo id="h12244c1:3" depart="57612.00" departLane="315358244_1" departPos="5.10" departSpeed="0.00" departDelay="0.40" arrival="57716.00" arrivalLane="386687235_1" arrivalPos="80.84" arrivalSpeed="12.35" duration="104.00" routeLength="1186.14" waitingTime="0.00" waitingCount="0" stopTime="0.00" timeLoss="9.72" rerouteNo="1" devices="tripinfo_h12244c1:3 routing_h12244c1:3 emissions_h12244c1:3" vType="default_016" speedFactor="0.92" vaporized="">
        <emissions CO_abs="2887.959871" CO2_abs="228909.645717" HC_abs="18.462335" PMx_abs="3.527437" NOx_abs="89.640010" fuel_abs="98.398777" electricity_abs="0"/>
    </tripinfo>
    <tripinfo id="h9563c2:5" depart="57631.00" departLane="315358244_1" departPos="5.10" departSpeed="0.00" departDelay="0.70" arrival="57718.00" arrivalLane="386687235_1" arrivalPos="80.84" arrivalSpeed="15.64" duration="87.00" routeLength="1186.14" waitingTime="0.00" waitingCount="0" stopTime="0.00" timeLoss="12.33" rerouteNo="1" devices="tripinfo_h9563c2:5 routing_h9563c2:5 emissions_h9563c2:5" vType="default_016" speedFactor="1.16" vaporized="">
        <emissions CO_abs="2849.825357" CO2_abs="251953.126539" HC_abs="18.664785" PMx_abs="4.217536" NOx_abs="99.156261" fuel_abs="108.303548" electricity_abs="0"/>
    </tripinfo>
    <tripinfo id="h7800c1:5" depart="57696.00" departLane="-447569998#1_1" departPos="5.10" departSpeed="0.00" departDelay="0.00" arrival="57721.00" arrivalLane="-447569998#1_1" arrivalPos="180.76" arrivalSpeed="7.81" duration="25.00" routeLength="175.66" waitingTime="0.00" waitingCount="0" stopTime="0.00" timeLoss="3.47" rerouteNo="1" devices="tripinfo_h7800c1:5 routing_h7800c1:5 emissions_h7800c1:5" vType="default_016" speedFactor="1.00" vaporized="">
        <emissions CO_abs="1139.669733" CO2_abs="48940.529542" HC_abs="6.313285" PMx_abs="0.810849" NOx_abs="19.985335" fuel_abs="21.037820" electricity_abs="0"/>
    </tripinfo>
    <tripinfo id="h3688c1:1" depart="57625.00" departLane="201201950#1_1" departPos="5.10" departSpeed="0.00" departDelay="0.00" arrival="57733.00" arrivalLane="32978638#0_1" arrivalPos="49.29" arrivalSpeed="11.48" duration="108.00" routeLength="1089.75" waitingTime="5.00" waitingCount="1" stopTime="0.00" timeLoss="18.72" rerouteNo="1" devices="tripinfo_h3688c1:1 routing_h3688c1:1 emissions_h3688c1:1" vType="default_016" speedFactor="0.89" vaporized="">
        <emissions CO_abs="3840.258508" CO2_abs="261364.317185" HC_abs="23.560199" PMx_abs="4.198376" NOx_abs="103.976540" fuel_abs="112.349846" electricity_abs="0"/>
    </tripinfo>
    <tripinfo id="h7181c1:1" depart="57660.00" departLane="315358254#0_1" departPos="5.10" departSpeed="0.00" departDelay="0.10" arrival="57741.00" arrivalLane="306240162#0_0" arrivalPos="220.43" arrivalSpeed="15.44" duration="81.00" routeLength="932.35" waitingTime="9.00" waitingCount="1" stopTime="0.00" timeLoss="28.09" rerouteNo="1" devices="tripinfo_h7181c1:1 routing_h7181c1:1 emissions_h7181c1:1" vType="default_016" speedFactor="0.97" vaporized="">
        <emissions CO_abs="4757.952566" CO2_abs="299917.773789" HC_abs="28.688834" PMx_abs="5.710010" NOx_abs="122.597316" fuel_abs="128.921570" electricity_abs="0"/>
    </tripinfo>
    <tripinfo id="h317c2:1" depart="57707.00" departLane="-32978638#0_1" departPos="5.10" departSpeed="0.00" departDelay="0.10" arrival="57745.00" arrivalLane="-266565295#5_1" arrivalPos="172.76" arrivalSpeed="12.48" duration="38.00" routeLength="370.53" waitingTime="2.00" waitingCount="1" stopTime="0.00" timeLoss="10.13" rerouteNo="1" devices="tripinfo_h317c2:1 routing_h317c2:1 emissions_h317c2:1" vType="default_016" speedFactor="0.98" vaporized="">
        <emissions CO_abs="2009.825872" CO2_abs="115550.251777" HC_abs="11.873097" PMx_abs="2.104544" NOx_abs="47.718269" fuel_abs="49.670206" electricity_abs="0"/>
    </tripinfo>
    <tripinfo id="carIn30817:1" depart="57681.00" departLane="315358244_1" departPos="5.10" departSpeed="0.00" departDelay="0.20" arrival="57746.00" arrivalLane="447569997#1_1" arrivalPos="180.93" arrivalSpeed="9.84" duration="65.00" routeLength="718.04" waitingTime="2.00" waitingCount="1" stopTime="0.00" timeLoss="13.18" rerouteNo="1" devices="tripinfo_carIn30817:1 routing_carIn30817:1 emissions_carIn30817:1" vType="default_016" speedFactor="1.19" vaporized="">
        <emissions CO_abs="2417.041768" CO2_abs="166511.687621" HC_abs="14.857722" PMx_abs="2.852802" NOx_abs="66.712083" fuel_abs="71.576336" electricity_abs="0"/>
    </tripinfo>
    <tripinfo id="h3568c1:3" depart="57656.00" departLane="266565295#5_1" departPos="5.10" departSpeed="0.00" departDelay="0.80" arrival="57748.00" arrivalLane="-24634415_1" arrivalPos="62.03" arrivalSpeed="10.39" duration="92.00" routeLength="807.40" waitingTime="0.00" waitingCount="0" stopTime="0.00" timeLoss="12.51" rerouteNo="1" devices="tripinfo_h3568c1:3 routing_h3568c1:3 emissions_h3568c1:3" vType="default_016" speedFactor="0.81" vaporized="">
        <emissions CO_abs="3318.757596" CO2_abs="183101.975903" HC_abs="19.356997" PMx_abs="3.044508" NOx_abs="74.210324" fuel_abs="78.708368" electricity_abs="0"/>
    </tripinfo>
    <tripinfo id="h4538c1:1" depart="57701.00" departLane="-10427692#1_1" departPos="5.10" departSpeed="0.00" departDelay="0.00" arrival="57752.00" arrivalLane="-128361102#1_1" arrivalPos="274.68" arrivalSpeed="10.98" duration="51.00" routeLength="440.74" waitingTime="3.00" waitingCount="1" stopTime="0.00" timeLoss="12.94" rerouteNo="1" devices="tripinfo_h4538c1:1 routing_h4538c1:1 emissions_h4538c1:1" vType="default_016" speedFactor="0.83" vaporized="">
        <emissions CO_abs="1919.750310" CO2_abs="109596.224033" HC_abs="11.282639" PMx_abs="1.804231" NOx_abs="44.194586" fuel_abs="47.111106" electricity_abs="0"/>
    </tripinfo>
    <tripinfo id="carIn28951:1" depart="57606.00" departLane="10425609#0_1" departPos="5.10" departSpeed="0.00" departDelay="0.20" arrival="57759.00" arrivalLane="-128361102#1_1" arrivalPos="274.68" arrivalSpeed="15.17" duration="153.00" routeLength="2095.01" waitingTime="0.00" waitingCount="0" stopTime="0.00" timeLoss="17.98" rerouteNo="1" devices="tripinfo_carIn28951:1 routing_carIn28951:1 emissions_carIn28951:1" vType="default_016" speedFactor="1.15" vaporized="">
        <emissions CO_abs="5152.870813" CO2_abs="454428.719171" HC_abs="33.923083" PMx_abs="7.681316" NOx_abs="179.866630" fuel_abs="195.338761" electricity_abs="0"/>
    </tripinfo>
    <tripinfo id="carIn22761:1" depart="57616.00" departLane="-306240162#1_0" departPos="5.10" departSpeed="0.00" departDelay="2.10" arrival="57765.00" arrivalLane="399835085#1_1" arrivalPos="212.23" arrivalSpeed="7.74" duration="149.00" routeLength="1093.26" waitingTime="52.00" waitingCount="1" stopTime="0.00" timeLoss="68.85" rerouteNo="1" devices="tripinfo_carIn22761:1 routing_carIn22761:1 emissions_carIn22761:1" vType="default_016" speedFactor="0.98" vaporized="">
        <emissions CO_abs="12095.592446" CO2_abs="407482.590404" HC_abs="64.661215" PMx_abs="8.236846" NOx_abs="171.564232" fuel_abs="175.162911" electricity_abs="0"/>
    </tripinfo>
    <tripinfo id="h3326c1:2" depart="57656.00" departLane="22716069#0_1" departPos="5.10" departSpeed="0.00" departDelay="0.00" arrival="57775.00" arrivalLane="24634517#13_1" arrivalPos="111.62" arrivalSpeed="13.10" duration="119.00" routeLength="1312.81" waitingTime="0.00" waitingCount="0" stopTime="0.00" timeLoss="15.98" rerouteNo="1" devices="tripinfo_h3326c1:2 routing_h3326c1:2 emissions_h3326c1:2" vType="default_016" speedFactor="0.95" vaporized="">
        <emissions CO_abs="4046.732751" CO2_abs="305260.954576" HC_abs="25.522027" PMx_abs="4.805727" NOx_abs="120.342727" fuel_abs="131.219040" electricity_abs="0"/>
    </tripinfo>
    <tripinfo id="h330c1:1" depart="57736.00" departLane="-32978638#0_1" departPos="5.10" departSpeed="0.00" departDelay="0.20" arrival="57775.00" arrivalLane="-266565295#5_1" arrivalPos="172.76" arrivalSpeed="13.10" duration="39.00" routeLength="370.53" waitingTime="1.00" waitingCount="1" stopTime="0.00" timeLoss="10.37" rerouteNo="1" devices="tripinfo_h330c1:1 routing_h330c1:1 emissions_h330c1:1" vType="default_016" speedFactor="0.95" vaporized="">
        <emissions CO_abs="1977.611369" CO2_abs="118468.053729" HC_abs="11.789772" PMx_abs="2.117291" NOx_abs="48.668757" fuel_abs="50.924437" electricity_abs="0"/>
    </tripinfo>
    <tripinfo id="carIn118591:1" depart="57689.00" departLane="315358244_1" departPos="5.10" departSpeed="0.00" departDelay="0.20" arrival="57778.00" arrivalLane="386687235_1" arrivalPos="80.84" arrivalSpeed="14.51" duration="89.00" routeLength="1186.14" waitingTime="0.00" waitingCount="0" stopTime="0.00" timeLoss="8.19" rerouteNo="1" devices="tripinfo_carIn118591:1 routing_carIn118591:1 emissions_carIn118591:1" vType="default_016" speedFactor="1.08" vaporized="">
        <emissions CO_abs="2305.670921" CO2_abs="226556.262342" HC_abs="15.593090" PMx_abs="3.459474" NOx_abs="87.056847" fuel_abs="97.386846" electricity_abs="0"/>
    </tripinfo>
    <tripinfo id="carIn27009:1" depart="57673.00" departLane="-447569998#1_1" departPos="5.10" departSpeed="0.00" departDelay="0.50" arrival="57781.00" arrivalLane="-26677539_1" arrivalPos="152.75" arrivalSpeed="6.60" duration="108.00" routeLength="699.63" waitingTime="0.00" waitingCount="0" stopTime="0.00" timeLoss="15.63" rerouteNo="1" devices="tripinfo_carIn27009:1 routing_carIn27009:1 emissions_carIn27009:1" vType="default_015" speedFactor="0.91" vaporized="">
        <emissions CO_abs="4446.092820" CO2_abs="184196.110714" HC_abs="24.452510" PMx_abs="2.972249" NOx_abs="74.853031" fuel_abs="79.179698" electricity_abs="0"/>
    </tripinfo>
    <tripinfo id="carIn48184:1" depart="57613.00" departLane="-306240162#1_0" departPos="5.10" departSpeed="0.00" departDelay="0.70" arrival="57783.00" arrivalLane="386687235_1" arrivalPos="80.84" arrivalSpeed="14.45" duration="170.00" routeLength="2257.41" waitingTime="3.00" waitingCount="1" stopTime="0.00" timeLoss="32.04" rerouteNo="1" devices="tripinfo_carIn48184:1 routing_carIn48184:1 emissions_carIn48184:1" vType="default_016" speedFactor="1.08" vaporized="">
        <emissions CO_abs="7169.892848" CO2_abs="552017.494210" HC_abs="45.650615" PMx_abs="9.983809" NOx_abs="222.549733" fuel_abs="237.287684" electricity_abs="0"/>
    </tripinfo>
    <tripinfo id="h3154c1:1" depart="57658.00" departLane="24634507_1" departPos="5.10" departSpeed="0.00" departDelay="0.00" arrival="57788.00" arrivalLane="-266565295#5_1" arrivalPos="172.76" arrivalSpeed="12.04" duration="130.00" routeLength="1206.22" waitingTime="8.00" waitingCount="2" stopTime="0.00" timeLoss="35.30" rerouteNo="1" devices="tripinfo_h3154c1:1 routing_h3154c1:1 emissions_h3154c1:1" vType="default_016" speedFactor="0.94" vaporized="">
        <emissions CO_abs="5515.954266" CO2_abs="333597.782534" HC_abs="32.941700" PMx_abs="5.861126" NOx_abs="136.322126" fuel_abs="143.399782" electricity_abs="0"/>
    </tripinfo>
    <tripinfo id="carIn50326:1" depart="57651.00" departLane="128361102#0_1" departPos="5.10" departSpeed="0.00" departDelay="0.30" arrival="57789.00" arrivalLane="18809673#0_1" arrivalPos="473.56" arrivalSpeed="14.74" duration="138.00" routeLength="1591.07" waitingTime="0.00" waitingCount="0" stopTime="0.00" timeLoss="19.32" rerouteNo="1" devices="tripinfo_carIn50326:1 routing_carIn50326:1 emissions_carIn50326:1" vType="default_016" speedFactor="1.10" vaporized="">
        <emissions CO_abs="4835.915987" CO2_abs="357091.397984" HC_abs="30.231676" PMx_abs="5.998820" NOx_abs="142.675744" fuel_abs="153.498336" electricity_abs="0"/>
    </tripinfo>
    <tripinfo id="carIn12365:1" depart="57713.00" departLane="315358244_1" departPos="5.10" departSpeed="0.00" departDelay="0.50" arrival="57793.00" arrivalLane="447569997#1_1" arrivalPos="180.93" arrivalSpeed="7.92" duration="80.00" routeLength="718.04" waitingTime="6.00" waitingCount="1" stopTime="0.00" timeLoss="18.93" rerouteNo="1" devices="tripinfo_carIn12365:1 routing_carIn12365:1 emissions_carIn12365:1" vType="default_016" speedFactor="1.01" vaporized="">
        <emissions CO_abs="3121.154696" CO2_abs="171727.121140" HC_abs="18.208499" PMx_abs="2.888721" NOx_abs="69.231195" fuel_abs="73.818781" electricity_abs="0"/>
    </tripinfo>
    <tripinfo id="carIn107282:1" depart="57749.00" departLane="-447569998#1_1" departPos="5.10" departSpeed="0.00" departDelay="0.00" arrival="57795.00" arrivalLane="315358242#0_1" arrivalPos="165.37" arrivalSpeed="13.16" duration="46.00" routeLength="448.50" waitingTime="0.00" waitingCount="0" stopTime="0.00" timeLoss="4.62" rerouteNo="1" devices="tripinfo_carIn107282:1 routing_carIn107282:1 emissions_carIn107282:1" vType="default_016" speedFactor="1.01" vaporized="">
        <emissions CO_abs="1824.320377" CO2_abs="110525.271923" HC_abs="10.839334" PMx_abs="1.692349" NOx_abs="43.545166" fuel_abs="47.510585" electricity_abs="0"/>
    </tripinfo>
    <tripinfo id="carIn107084:1" depart="57601.00" departLane="124812856#0_1" departPos="5.10" departSpeed="0.00" departDelay="0.70" arrival="57799.00" arrivalLane="-128361102#1_1" arrivalPos="274.68" arrivalSpeed="12.12" duration="198.00" routeLength="2250.49" waitingTime="3.00" waitingCount="1" stopTime="0.00" timeLoss="26.00" rerouteNo="1" devices="tripinfo_carIn107084:1 routing_carIn107084:1 emissions_carIn107084:1" vType="default_016" speedFactor="0.95" vaporized="">
        <emissions CO_abs="5806.678276" CO2_abs="459065.665183" HC_abs="37.142179" PMx_abs="7.314824" NOx_abs="181.155674" fuel_abs="197.332982" electricity_abs="0"/>
    </tripinfo>
    <tripinfo id="carIn77943:1" depart="57608.00" departLane="124812856#0_1" departPos="5.10" departSpeed="0.00" departDelay="2.50" arrival="57801.00" arrivalLane="-128361102#1_1" arrivalPos="274.68" arrivalSpeed="14.18" duration="193.00" routeLength="2250.49" waitingTime="0.00" waitingCount="0" stopTime="0.00" timeLoss="37.18" rerouteNo="1" devices="tripinfo_carIn77943:1 routing_carIn77943:1 emissions_carIn77943:1" vType="default_016" speedFactor="1.06" vaporized="">
        <emissions CO_abs="7143.266409" CO2_abs="545012.947963" HC_abs="45.319345" PMx_abs="9.252411" NOx_abs="218.653746" fuel_abs="234.277448" electricity_abs="0"/>
    </tripinfo>
    <tripinfo id="carIn81046:1" depart="57611.00" departLane="124812856#0_1" departPos="5.10" departSpeed="0.00" departDelay="2.50" arrival="57805.00" arrivalLane="-128361102#1_1" arrivalPos="274.68" arrivalSpeed="13.21" duration="194.00" routeLength="2250.49" waitingTime="0.00" waitingCount="0" stopTime="0.00" timeLoss="25.18" rerouteNo="1" devices="tripinfo_carIn81046:1 routing_carIn81046:1 emissions_carIn81046:1" vType="default_016" speedFactor="0.98" vaporized="">
        <emissions CO_abs="5890.938666" CO2_abs="473731.248862" HC_abs="37.868574" PMx_abs="7.573583" NOx_abs="186.907272" fuel_abs="203.636992" electricity_abs="0"/>
    </tripinfo>
    <tripinfo id="carIn86816:1" depart="57617.00" departLane="128361102#0_1" departPos="5.10" departSpeed="0.00" departDelay="0.80" arrival="57805.00" arrivalLane="201956811#0_1" arrivalPos="40.40" arrivalSpeed="11.61" duration="188.00" routeLength="2067.33" waitingTime="0.00" waitingCount="0" stopTime="0.00" timeLoss="18.41" rerouteNo="1" devices="tripinfo_carIn86816:1 routing_carIn86816:1 emissions_carIn86816:1" vType="default_016" speedFactor="0.89" vaporized="">
        <emissions CO_abs="5072.537577" CO2_abs="413091.876469" HC_abs="32.629481" PMx_abs="6.072545" NOx_abs="160.011148" fuel_abs="177.571405" electricity_abs="0"/>
    </tripinfo>
    <tripinfo id="h11737c1:1" depart="57665.00" departLane="272042143_1" departPos="5.10" departSpeed="0.00" departDelay="1.50" arrival="57806.00" arrivalLane="-315358254#1_1" arrivalPos="137.16" arrivalSpeed="13.97" duration="141.00" routeLength="1596.88" waitingTime="17.00" waitingCount="1" stopTime="0.00" timeLoss="33.53" rerouteNo="1" devices="tripinfo_h11737c1:1 routing_h11737c1:1 emissions_h11737c1:1" vType="default_016" speedFactor="1.09" vaporized="">
        <emissions CO_abs="5874.219879" CO2_abs="352784.841747" HC_abs="34.914101" PMx_abs="6.212925" NOx_abs="142.159603" fuel_abs="151.647704" electricity_abs="0"/>
    </tripinfo>
    <tripinfo id="carIn126288:1" depart="57674.00" departLane="272042143_1" departPos="5.10" departSpeed="0.00" departDelay="0.00" arrival="57807.00" arrivalLane="-315358254#1_1" arrivalPos="137.16" arrivalSpeed="15.57" duration="133.00" routeLength="1596.88" waitingTime="8.00" waitingCount="2" stopTime="0.00" timeLoss="31.02" rerouteNo="1" devices="tripinfo_carIn126288:1 routing_carIn126288:1 emissions_carIn126288:1" vType="default_016" speedFactor="1.14" vaporized="">
        <emissions CO_abs="5641.966994" CO2_abs="397485.294472" HC_abs="34.837200" PMx_abs="7.061489" NOx_abs="160.326839" fuel_abs="170.861668" electricity_abs="0"/>
    </tripinfo>
    <tripinfo id="carIn81860:1" depart="57712.00" departLane="128361102#0_1" departPos="5.10" departSpeed="0.00" departDelay="0.60" arrival="57808.00" arrivalLane="-24634517#17_1" arrivalPos="6.43" arrivalSpeed="8.31" duration="96.00" routeLength="1229.64" waitingTime="0.00" waitingCount="0" stopTime="0.00" timeLoss="12.58" rerouteNo="1" devices="tripinfo_carIn81860:1 routing_carIn81860:1 emissions_carIn81860:1" vType="default_016" speedFactor="1.09" vaporized="">
        <emissions CO_abs="3121.595045" CO2_abs="265298.842324" HC_abs="20.350396" PMx_abs="4.376029" NOx_abs="104.662893" fuel_abs="114.040448" electricity_abs="0"/>
    </tripinfo>
    <tripinfo id="carIn77438:1" depart="57614.00" departLane="124812856#0_1" departPos="5.10" departSpeed="0.00" departDelay="1.10" arrival="57811.00" arrivalLane="-128361102#1_1" arrivalPos="274.68" arrivalSpeed="13.06" duration="197.00" routeLength="2250.49" waitingTime="0.00" waitingCount="0" stopTime="0.00" timeLoss="23.46" rerouteNo="1" devices="tripinfo_carIn77438:1 routing_carIn77438:1 emissions_carIn77438:1" vType="default_016" speedFactor="0.95" vaporized="">
        <emissions CO_abs="5822.248038" CO2_abs="464861.181918" HC_abs="37.346788" PMx_abs="7.431148" NOx_abs="183.753017" fuel_abs="199.824127" electricity_abs="0"/>
    </tripinfo>
    <tripinfo id="carIn82220:1" depart="57619.00" departLane="-306240162#1_0" departPos="5.10" departSpeed="0.00" departDelay="3.50" arrival="57813.00" arrivalLane="386687235_1" arrivalPos="80.84" arrivalSpeed="13.24" duration="194.00" routeLength="2257.41" waitingTime="16.00" waitingCount="2" stopTime="0.00" timeLoss="41.80" rerouteNo="1" devices="tripinfo_carIn82220:1 routing_carIn82220:1 emissions_carIn82220:1" vType="default_016" speedFactor="0.97" vaporized="">
        <emissions CO_abs="6927.557321" CO2_abs="497280.322398" HC_abs="43.222740" PMx_abs="8.398806" NOx_abs="197.326861" fuel_abs="213.759875" electricity_abs="0"/>
    </tripinfo>
    <tripinfo id="carIn462:1" depart="57622.00" departLane="-306240162#1_0" departPos="5.10" departSpeed="0.00" departDelay="4.80" arrival="57813.00" arrivalLane="386687235_2" arrivalPos="80.84" arrivalSpeed="14.05" duration="191.00" routeLength="2257.41" waitingTime="13.00" waitingCount="2" stopTime="0.00" timeLoss="50.78" rerouteNo="1" devices="tripinfo_carIn462:1 routing_carIn462:1 emissions_carIn462:1" vType="default_016" speedFactor="1.06" vaporized="">
        <emissions CO_abs="8312.315800" CO2_abs="559122.319875" HC_abs="51.015115" PMx_abs="10.098621" NOx_abs="226.555913" fuel_abs="240.342532" electricity_abs="0"/>
    </tripinfo>
    <tripinfo id="h5979c1:5" depart="57669.00" departLane="399835085#1_1" departPos="5.10" departSpeed="0.00" departDelay="0.00" arrival="57813.00" arrivalLane="-315358254#1_1" arrivalPos="137.16" arrivalSpeed="10.71" duration="144.00" routeLength="659.33" waitingTime="37.00" waitingCount="1" stopTime="0.00" timeLoss="56.18" rerouteNo="1" devices="tripinfo_h5979c1:5 routing_h5979c1:5 emissions_h5979c1:5" vType="default_016" speedFactor="0.83" vaporized="">
        <emissions CO_abs="10148.887319" CO2_abs="275617.156045" HC_abs="52.566169" PMx_abs="5.255779" NOx_abs="116.642413" fuel_abs="118.480341" electricity_abs="0"/>
    </tripinfo>
    <tripinfo id="h17600c1:1" depart="57662.00" departLane="272042143_1" departPos="5.10" departSpeed="0.00" departDelay="0.30" arrival="57814.00" arrivalLane="201238729#3_1" arrivalPos="431.02" arrivalSpeed="14.67" duration="152.00" routeLength="2100.26" waitingTime="0.00" waitingCount="0" stopTime="0.00" timeLoss="12.19" rerouteNo="1" devices="tripinfo_h17600c1:1 routing_h17600c1:1 emissions_h17600c1:1" vType="default_016" speedFactor="1.09" vaporized="">
        <emissions CO_abs="3368.698493" CO2_abs="384945.067239" HC_abs="23.960068" PMx_abs="5.686758" NOx_abs="145.806310" fuel_abs="165.471326" electricity_abs="0"/>
    </tripinfo>
    <tripinfo id="carIn129809:1" depart="57729.00" departLane="-447569998#1_1" departPos="5.10" departSpeed="0.00" departDelay="1.00" arrival="57814.00" arrivalLane="-315358244_1" arrivalPos="33.95" arrivalSpeed="11.90" duration="85.00" routeLength="706.49" waitingTime="6.00" waitingCount="1" stopTime="0.00" timeLoss="19.00" rerouteNo="1" devices="tripinfo_carIn129809:1 routing_carIn129809:1 emissions_carIn129809:1" vType="default_015" speedFactor="0.91" vaporized="">
        <emissions CO_abs="3298.017945" CO2_abs="180576.295969" HC_abs="19.204364" PMx_abs="2.994472" NOx_abs="72.957500" fuel_abs="77.622730" electricity_abs="0"/>
    </tripinfo>
    <tripinfo id="carIn116184:1" depart="57627.00" departLane="-306240162#1_0" departPos="5.10" departSpeed="0.00" departDelay="0.10" arrival="57816.00" arrivalLane="386687235_1" arrivalPos="80.84" arrivalSpeed="12.54" duration="189.00" routeLength="2257.41" waitingTime="4.00" waitingCount="1" stopTime="0.00" timeLoss="31.32" rerouteNo="1" devices="tripinfo_carIn116184:1 routing_carIn116184:1 emissions_carIn116184:1" vType="default_016" speedFactor="0.94" vaporized="">
        <emissions CO_abs="6654.219600" CO2_abs="490515.592869" HC_abs="41.803071" PMx_abs="8.484554" NOx_abs="197.314082" fuel_abs="210.851393" electricity_abs="0"/>
    </tripinfo>
    <tripinfo id="carIn31257:1" depart="57630.00" departLane="-306240162#1_0" departPos="5.10" departSpeed="0.00" departDelay="1.60" arrival="57816.00" arrivalLane="386687235_2" arrivalPos="80.84" arrivalSpeed="12.61" duration="186.00" routeLength="2257.41" waitingTime="1.00" waitingCount="1" stopTime="0.00" timeLoss="34.93" rerouteNo="1" devices="tripinfo_carIn31257:1 routing_carIn31257:1 emissions_carIn31257:1" vType="default_016" speedFactor="0.99" vaporized="">
        <emissions CO_abs="7077.768347" CO2_abs="511826.462961" HC_abs="44.303112" PMx_abs="9.044270" NOx_abs="206.321756" fuel_abs="220.011923" electricity_abs="0"/>
    </tripinfo>
    <tripinfo id="h645c1:1" depart="57622.00" departLane="266565295#5_1" departPos="5.10" departSpeed="0.00" departDelay="0.40" arrival="57817.00" arrivalLane="-315358244_1" arrivalPos="33.95" arrivalSpeed="10.41" duration="195.00" routeLength="1910.83" waitingTime="0.00" waitingCount="0" stopTime="0.00" timeLoss="19.96" rerouteNo="1" devices="tripinfo_h645c1:1 routing_h645c1:1 emissions_h645c1:1" vType="default_016" speedFactor="0.79" vaporized="">
        <emissions CO_abs="5770.669829" CO2_abs="400863.822771" HC_abs="35.456948" PMx_abs="5.764700" NOx_abs="155.682251" fuel_abs="172.315855" electricity_abs="0"/>
    </tripinfo>
    <tripinfo id="h16072c2:3" depart="57663.00" departLane="315358254#0_1" departPos="5.10" departSpeed="0.00" departDelay="2.50" arrival="57817.00" arrivalLane="386687235_1" arrivalPos="80.84" arrivalSpeed="12.53" duration="154.00" routeLength="1611.92" waitingTime="4.00" waitingCount="1" stopTime="0.00" timeLoss="35.39" rerouteNo="1" devices="tripinfo_h16072c2:3 routing_h16072c2:3 emissions_h16072c2:3" vType="default_016" speedFactor="0.99" vaporized="">
        <emissions CO_abs="5667.867430" CO2_abs="374601.703642" HC_abs="34.563319" PMx_abs="6.329544" NOx_abs="150.696164" fuel_abs="161.025670" electricity_abs="0"/>
    </tripinfo>
    <tripinfo id="carIn46110:1" depart="57684.00" departLane="315358244_1" departPos="5.10" departSpeed="0.00" departDelay="1.20" arrival="57820.00" arrivalLane="32978638#0_1" arrivalPos="49.29" arrivalSpeed="13.89" duration="136.00" routeLength="1764.04" waitingTime="0.00" waitingCount="0" stopTime="0.00" timeLoss="14.84" rerouteNo="1" devices="tripinfo_carIn46110:1 routing_carIn46110:1 emissions_carIn46110:1" vType="default_016" speedFactor="1.06" vaporized="">
        <emissions CO_abs="3895.706503" CO2_abs="347396.974201" HC_abs="25.763500" PMx_abs="5.538868" NOx_abs="135.562769" fuel_abs="149.331026" electricity_abs="0"/>
    </tripinfo>
    <tripinfo id="carIn82278:1" depart="57702.00" departLane="-306240162#1_0" departPos="5.10" departSpeed="0.00" departDelay="0.70" arrival="57822.00" arrivalLane="399835085#1_1" arrivalPos="212.23" arrivalSpeed="7.88" duration="120.00" routeLength="1093.26" waitingTime="29.00" waitingCount="1" stopTime="0.00" timeLoss="47.29" rerouteNo="1" devices="tripinfo_carIn82278:1 routing_carIn82278:1 emissions_carIn82278:1" vType="default_016" speedFactor="1.08" vaporized="">
        <emissions CO_abs="8093.987981" CO2_abs="343257.436971" HC_abs="45.029482" PMx_abs="6.902913" NOx_abs="144.060163" fuel_abs="147.552994" electricity_abs="0"/>
    </tripinfo>