<?xml version="1.0" encoding="UTF-8"?>

<!-- generated on 2021-10-26 12:20:11 by Eclipse SUMO sumo Version 1.10.0
<configuration xmlns:xsi="http://www.w3.org/2001/XMLSchema-instance" xsi:noNamespaceSchemaLocation="http://sumo.dlr.de/xsd/sumoConfiguration.xsd">

    <input>
        <net-file value="/Users/behradkoohy/sumo-scratchpad/RESCO/environments/ingolstadt21/ingolstadt21.net.xml"/>
        <route-files value="/Users/behradkoohy/sumo-scratchpad/RESCO/environments/ingolstadt21/ingolstadt21.rou.xml"/>
    </input>

    <output>
        <tripinfo-output value="/Users/behradkoohy/sumo-scratchpad/RESCO/logs/MAXWAVE-tr0-ingolstadt21-21-wave-wait/tripinfo_90.xml"/>
        <tripinfo-output.write-unfinished value="true"/>
    </output>

    <time>
        <begin value="57600"/>
        <end value="61200"/>
    </time>

    <processing>
        <time-to-teleport value="-1"/>
    </processing>

    <report>
        <no-warnings value="true"/>
        <no-step-log value="true"/>
    </report>

    <emissions>
        <device.emissions.probability value="1"/>
    </emissions>

    <traci_server>
        <remote-port value="58177"/>
    </traci_server>

    <random_number>
        <random value="true"/>
    </random_number>

</configuration>
-->

<tripinfos xmlns:xsi="http://www.w3.org/2001/XMLSchema-instance" xsi:noNamespaceSchemaLocation="http://sumo.dlr.de/xsd/tripinfo_file.xsd">
    <tripinfo id="h15454c2:3" depart="57612.00" departLane="24608844_1" departPos="5.10" departSpeed="0.00" departDelay="0.50" arrival="57652.00" arrivalLane="32978638#0_1" arrivalPos="49.29" arrivalSpeed="13.05" duration="40.00" routeLength="354.79" waitingTime="0.00" waitingCount="0" stopTime="0.00" timeLoss="6.16" rerouteNo="1" devices="tripinfo_h15454c2:3 routing_h15454c2:3 emissions_h15454c2:3" vType="default_016" speedFactor="1.00" vaporized="">
        <emissions CO_abs="2014.729456" CO2_abs="111017.127194" HC_abs="11.744270" PMx_abs="1.966106" NOx_abs="45.731823" fuel_abs="47.721732" electricity_abs="0"/>
    </tripinfo>
    <tripinfo id="carIn60260:1" depart="57606.00" departLane="315358254#0_1" departPos="5.10" departSpeed="0.00" departDelay="0.90" arrival="57657.00" arrivalLane="399835085#1_1" arrivalPos="212.23" arrivalSpeed="7.40" duration="51.00" routeLength="430.98" waitingTime="0.00" waitingCount="0" stopTime="0.00" timeLoss="6.70" rerouteNo="1" devices="tripinfo_carIn60260:1 routing_carIn60260:1 emissions_carIn60260:1" vType="default_016" speedFactor="1.04" vaporized="">
        <emissions CO_abs="2110.151479" CO2_abs="109325.208768" HC_abs="12.098075" PMx_abs="1.772187" NOx_abs="44.125395" fuel_abs="46.994788" electricity_abs="0"/>
    </tripinfo>
    <tripinfo id="carIn53971:1" depart="57640.00" departLane="272042143_1" departPos="5.10" departSpeed="0.00" departDelay="0.80" arrival="57695.00" arrivalLane="24634414#1_1" arrivalPos="162.19" arrivalSpeed="8.13" duration="55.00" routeLength="493.04" waitingTime="0.00" waitingCount="0" stopTime="0.00" timeLoss="9.05" rerouteNo="1" devices="tripinfo_carIn53971:1 routing_carIn53971:1 emissions_carIn53971:1" vType="default_016" speedFactor="1.01" vaporized="">
        <emissions CO_abs="2499.448860" CO2_abs="139511.321297" HC_abs="14.616603" PMx_abs="2.432772" NOx_abs="57.184020" fuel_abs="59.970260" electricity_abs="0"/>
    </tripinfo>
    <tripinfo id="h12244c1:3" depart="57612.00" departLane="315358244_1" departPos="5.10" departSpeed="0.00" departDelay="0.40" arrival="57702.00" arrivalLane="386687235_1" arrivalPos="80.84" arrivalSpeed="14.55" duration="90.00" routeLength="1186.14" waitingTime="0.00" waitingCount="0" stopTime="0.00" timeLoss="9.45" rerouteNo="1" devices="tripinfo_h12244c1:3 routing_h12244c1:3 emissions_h12244c1:3" vType="default_016" speedFactor="1.07" vaporized="">
        <emissions CO_abs="2680.255532" CO2_abs="243276.094192" HC_abs="17.772576" PMx_abs="3.906337" NOx_abs="95.078518" fuel_abs="104.573845" electricity_abs="0"/>
    </tripinfo>
    <tripinfo id="S5R_frequency1.2" depart="57615.00" departLane="315358250#0_1" departPos="12.10" departSpeed="0.00" departDelay="3.40" arrival="57709.00" arrivalLane="386687235_1" arrivalPos="80.84" arrivalSpeed="13.11" duration="94.00" routeLength="1115.62" waitingTime="0.00" waitingCount="0" stopTime="0.00" timeLoss="12.70" rerouteNo="1" devices="tripinfo_S5R_frequency1.2 routing_S5R_frequency1.2 emissions_S5R_frequency1.2" vType="bus" speedFactor="1.00" vaporized="">
        <emissions CO_abs="1739.484906" CO2_abs="1100827.661619" HC_abs="365.735690" PMx_abs="186.698073" NOx_abs="8512.450811" fuel_abs="469.494042" electricity_abs="0"/>
    </tripinfo>
    <tripinfo id="h7800c1:5" depart="57696.00" departLane="-447569998#1_1" departPos="5.10" departSpeed="0.00" departDelay="0.00" arrival="57718.00" arrivalLane="-447569998#1_1" arrivalPos="180.76" arrivalSpeed="8.89" duration="22.00" routeLength="175.66" waitingTime="0.00" waitingCount="0" stopTime="0.00" timeLoss="3.58" rerouteNo="1" devices="tripinfo_h7800c1:5 routing_h7800c1:5 emissions_h7800c1:5" vType="default_016" speedFactor="1.16" vaporized="">
        <emissions CO_abs="1156.415962" CO2_abs="56731.719843" HC_abs="6.574572" PMx_abs="0.938812" NOx_abs="23.073245" fuel_abs="24.386850" electricity_abs="0"/>
    </tripinfo>
    <tripinfo id="carIn22761:1" depart="57616.00" departLane="-306240162#1_0" departPos="5.10" departSpeed="0.00" departDelay="2.10" arrival="57720.00" arrivalLane="399835085#1_1" arrivalPos="212.23" arrivalSpeed="5.91" duration="104.00" routeLength="1093.26" waitingTime="0.00" waitingCount="0" stopTime="0.00" timeLoss="11.78" rerouteNo="1" devices="tripinfo_carIn22761:1 routing_carIn22761:1 emissions_carIn22761:1" vType="default_016" speedFactor="0.84" vaporized="">
        <emissions CO_abs="3741.723349" CO2_abs="238384.148449" HC_abs="22.496041" PMx_abs="4.091849" NOx_abs="95.670798" fuel_abs="102.471477" electricity_abs="0"/>
    </tripinfo>
    <tripinfo id="carIn80064:1" depart="57603.00" departLane="128361109#1_1" departPos="5.10" departSpeed="0.00" departDelay="0.40" arrival="57725.00" arrivalLane="-315358254#1_1" arrivalPos="137.16" arrivalSpeed="13.12" duration="122.00" routeLength="1587.97" waitingTime="6.00" waitingCount="1" stopTime="0.00" timeLoss="27.57" rerouteNo="1" devices="tripinfo_carIn80064:1 routing_carIn80064:1 emissions_carIn80064:1" vType="default_016" speedFactor="0.95" vaporized="">
        <emissions CO_abs="5653.823860" CO2_abs="419516.621079" HC_abs="35.759833" PMx_abs="7.869302" NOx_abs="170.784814" fuel_abs="180.331250" electricity_abs="0"/>
    </tripinfo>
    <tripinfo id="h3568c1:3" depart="57656.00" departLane="266565295#5_1" departPos="5.10" departSpeed="0.00" departDelay="0.80" arrival="57732.00" arrivalLane="-24634415_1" arrivalPos="62.03" arrivalSpeed="13.89" duration="76.00" routeLength="807.40" waitingTime="0.00" waitingCount="0" stopTime="0.00" timeLoss="11.94" rerouteNo="1" devices="tripinfo_h3568c1:3 routing_h3568c1:3 emissions_h3568c1:3" vType="default_016" speedFactor="1.01" vaporized="">
        <emissions CO_abs="3076.038275" CO2_abs="210931.739446" HC_abs="18.926509" PMx_abs="3.572184" NOx_abs="84.881890" fuel_abs="90.670658" electricity_abs="0"/>
    </tripinfo>
    <tripinfo id="h3688c1:1" depart="57625.00" departLane="201201950#1_1" departPos="5.10" departSpeed="0.00" departDelay="0.00" arrival="57733.00" arrivalLane="32978638#0_1" arrivalPos="49.29" arrivalSpeed="11.98" duration="108.00" routeLength="1089.75" waitingTime="4.00" waitingCount="1" stopTime="0.00" timeLoss="18.58" rerouteNo="1" devices="tripinfo_h3688c1:1 routing_h3688c1:1 emissions_h3688c1:1" vType="default_016" speedFactor="0.89" vaporized="">
        <emissions CO_abs="3353.298448" CO2_abs="236499.159076" HC_abs="20.762998" PMx_abs="3.767242" NOx_abs="93.854095" fuel_abs="101.661277" electricity_abs="0"/>
    </tripinfo>
    <tripinfo id="h317c2:1" depart="57707.00" departLane="-32978638#0_1" departPos="5.10" departSpeed="0.00" departDelay="0.10" arrival="57745.00" arrivalLane="-266565295#5_1" arrivalPos="172.76" arrivalSpeed="13.45" duration="38.00" routeLength="370.53" waitingTime="0.00" waitingCount="0" stopTime="0.00" timeLoss="9.89" rerouteNo="1" devices="tripinfo_h317c2:1 routing_h317c2:1 emissions_h317c2:1" vType="default_016" speedFactor="0.98" vaporized="">
        <emissions CO_abs="2072.080611" CO2_abs="120503.138717" HC_abs="12.276526" PMx_abs="2.222903" NOx_abs="49.956391" fuel_abs="51.799180" electricity_abs="0"/>
    </tripinfo>
    <tripinfo id="carIn30817:1" depart="57681.00" departLane="315358244_1" departPos="5.10" departSpeed="0.00" departDelay="0.20" arrival="57749.00" arrivalLane="447569997#1_1" arrivalPos="180.93" arrivalSpeed="8.20" duration="68.00" routeLength="718.04" waitingTime="0.00" waitingCount="0" stopTime="0.00" timeLoss="7.07" rerouteNo="1" devices="tripinfo_carIn30817:1 routing_carIn30817:1 emissions_carIn30817:1" vType="default_016" speedFactor="1.01" vaporized="">
        <emissions CO_abs="2252.064529" CO2_abs="145765.035788" HC_abs="13.635505" PMx_abs="2.323473" NOx_abs="57.853117" fuel_abs="62.658560" electricity_abs="0"/>
    </tripinfo>
    <tripinfo id="h7181c1:1" depart="57660.00" departLane="315358254#0_1" departPos="5.10" departSpeed="0.00" departDelay="0.10" arrival="57752.00" arrivalLane="306240162#0_0" arrivalPos="220.43" arrivalSpeed="15.08" duration="92.00" routeLength="932.35" waitingTime="17.00" waitingCount="2" stopTime="0.00" timeLoss="35.78" rerouteNo="1" devices="tripinfo_h7181c1:1 routing_h7181c1:1 emissions_h7181c1:1" vType="default_016" speedFactor="0.92" vaporized="">
        <emissions CO_abs="5627.224841" CO2_abs="305989.978116" HC_abs="32.776124" PMx_abs="5.906717" NOx_abs="126.702430" fuel_abs="131.532171" electricity_abs="0"/>
    </tripinfo>
    <tripinfo id="h4538c1:1" depart="57701.00" departLane="-10427692#1_1" departPos="5.10" departSpeed="0.00" departDelay="0.00" arrival="57755.00" arrivalLane="-128361102#1_1" arrivalPos="274.68" arrivalSpeed="14.19" duration="54.00" routeLength="440.74" waitingTime="13.00" waitingCount="1" stopTime="0.00" timeLoss="22.87" rerouteNo="1" devices="tripinfo_h4538c1:1 routing_h4538c1:1 emissions_h4538c1:1" vType="default_016" speedFactor="1.02" vaporized="">
        <emissions CO_abs="2796.462382" CO2_abs="136309.658191" HC_abs="15.926220" PMx_abs="2.514082" NOx_abs="56.259407" fuel_abs="58.594142" electricity_abs="0"/>
    </tripinfo>
    <tripinfo id="carIn28951:1" depart="57606.00" departLane="10425609#0_1" departPos="5.10" departSpeed="0.00" departDelay="0.20" arrival="57760.00" arrivalLane="-128361102#1_1" arrivalPos="274.68" arrivalSpeed="15.22" duration="154.00" routeLength="2095.01" waitingTime="0.00" waitingCount="0" stopTime="0.00" timeLoss="20.21" rerouteNo="1" devices="tripinfo_carIn28951:1 routing_carIn28951:1 emissions_carIn28951:1" vType="default_016" speedFactor="1.15" vaporized="">
        <emissions CO_abs="5997.001141" CO2_abs="490949.327595" HC_abs="38.752924" PMx_abs="8.733689" NOx_abs="197.885825" fuel_abs="211.036992" electricity_abs="0"/>
    </tripinfo>
    <tripinfo id="h5979c1:5" depart="57669.00" departLane="399835085#1_1" departPos="5.10" departSpeed="0.00" departDelay="0.00" arrival="57761.00" arrivalLane="-315358254#1_1" arrivalPos="137.16" arrivalSpeed="14.35" duration="92.00" routeLength="659.33" waitingTime="5.00" waitingCount="1" stopTime="0.00" timeLoss="24.59" rerouteNo="1" devices="tripinfo_h5979c1:5 routing_h5979c1:5 emissions_h5979c1:5" vType="default_016" speedFactor="1.08" vaporized="">
        <emissions CO_abs="3742.193301" CO2_abs="182266.160924" HC_abs="21.231986" PMx_abs="3.002538" NOx_abs="73.825486" fuel_abs="78.349486" electricity_abs="0"/>
    </tripinfo>
    <tripinfo id="h9563c2:5" depart="57631.00" departLane="315358244_1" departPos="5.10" departSpeed="0.00" departDelay="0.70" arrival="57764.00" arrivalLane="386687235_1" arrivalPos="80.84" arrivalSpeed="9.45" duration="133.00" routeLength="1186.14" waitingTime="0.00" waitingCount="0" stopTime="0.00" timeLoss="11.81" rerouteNo="1" devices="tripinfo_h9563c2:5 routing_h9563c2:5 emissions_h9563c2:5" vType="default_016" speedFactor="0.71" vaporized="">
        <emissions CO_abs="3924.047912" CO2_abs="238948.930881" HC_abs="23.331656" PMx_abs="3.513203" NOx_abs="93.873609" fuel_abs="102.715141" electricity_abs="0"/>
    </tripinfo>
    <tripinfo id="h3326c1:2" depart="57656.00" departLane="22716069#0_1" departPos="5.10" departSpeed="0.00" departDelay="0.00" arrival="57767.00" arrivalLane="24634517#13_1" arrivalPos="111.62" arrivalSpeed="13.50" duration="111.00" routeLength="1312.81" waitingTime="0.00" waitingCount="0" stopTime="0.00" timeLoss="14.59" rerouteNo="1" devices="tripinfo_h3326c1:2 routing_h3326c1:2 emissions_h3326c1:2" vType="default_016" speedFactor="1.02" vaporized="">
        <emissions CO_abs="4243.952867" CO2_abs="313327.440283" HC_abs="26.642139" PMx_abs="5.431220" NOx_abs="126.609786" fuel_abs="134.685806" electricity_abs="0"/>
    </tripinfo>
    <tripinfo id="h330c1:1" depart="57736.00" departLane="-32978638#0_1" departPos="5.10" departSpeed="0.00" departDelay="0.20" arrival="57774.00" arrivalLane="-266565295#5_1" arrivalPos="172.76" arrivalSpeed="13.79" duration="38.00" routeLength="370.53" waitingTime="2.00" waitingCount="1" stopTime="0.00" timeLoss="12.38" rerouteNo="1" devices="tripinfo_h330c1:1 routing_h330c1:1 emissions_h330c1:1" vType="default_016" speedFactor="1.07" vaporized="">
        <emissions CO_abs="2127.510424" CO2_abs="121940.015726" HC_abs="12.583457" PMx_abs="2.343529" NOx_abs="51.113440" fuel_abs="52.416720" electricity_abs="0"/>
    </tripinfo>
    <tripinfo id="carIn107084:1" depart="57601.00" departLane="124812856#0_1" departPos="5.10" departSpeed="0.00" departDelay="0.70" arrival="57779.00" arrivalLane="-128361102#1_1" arrivalPos="274.68" arrivalSpeed="14.90" duration="178.00" routeLength="2250.49" waitingTime="4.00" waitingCount="1" stopTime="0.00" timeLoss="26.81" rerouteNo="1" devices="tripinfo_carIn107084:1 routing_carIn107084:1 emissions_carIn107084:1" vType="default_016" speedFactor="1.09" vaporized="">
        <emissions CO_abs="5804.882834" CO2_abs="492929.970503" HC_abs="37.756611" PMx_abs="8.136696" NOx_abs="194.434569" fuel_abs="211.889169" electricity_abs="0"/>
    </tripinfo>
    <tripinfo id="h645c1:1" depart="57622.00" departLane="266565295#5_1" departPos="5.10" departSpeed="0.00" departDelay="0.40" arrival="57780.00" arrivalLane="-315358244_1" arrivalPos="33.95" arrivalSpeed="12.81" duration="158.00" routeLength="1910.83" waitingTime="0.00" waitingCount="0" stopTime="0.00" timeLoss="12.16" rerouteNo="1" devices="tripinfo_h645c1:1 routing_h645c1:1 emissions_h645c1:1" vType="default_016" speedFactor="0.95" vaporized="">
        <emissions CO_abs="3435.044142" CO2_abs="329553.422408" HC_abs="23.257666" PMx_abs="4.725111" NOx_abs="125.795487" fuel_abs="141.661392" electricity_abs="0"/>
    </tripinfo>
    <tripinfo id="carIn27009:1" depart="57673.00" departLane="-447569998#1_1" departPos="5.10" departSpeed="0.00" departDelay="0.50" arrival="57780.00" arrivalLane="-26677539_1" arrivalPos="152.75" arrivalSpeed="8.17" duration="107.00" routeLength="699.63" waitingTime="12.00" waitingCount="1" stopTime="0.00" timeLoss="28.38" rerouteNo="1" devices="tripinfo_carIn27009:1 routing_carIn27009:1 emissions_carIn27009:1" vType="default_015" speedFactor="1.06" vaporized="">
        <emissions CO_abs="4943.979119" CO2_abs="201122.426680" HC_abs="27.173891" PMx_abs="3.582859" NOx_abs="83.563851" fuel_abs="86.455348" electricity_abs="0"/>
    </tripinfo>
    <tripinfo id="carIn118591:1" depart="57689.00" departLane="315358244_1" departPos="5.10" departSpeed="0.00" departDelay="0.20" arrival="57786.00" arrivalLane="386687235_1" arrivalPos="80.84" arrivalSpeed="13.42" duration="97.00" routeLength="1186.14" waitingTime="0.00" waitingCount="0" stopTime="0.00" timeLoss="8.15" rerouteNo="1" devices="tripinfo_carIn118591:1 routing_carIn118591:1 emissions_carIn118591:1" vType="default_016" speedFactor="0.98" vaporized="">
        <emissions CO_abs="2562.562523" CO2_abs="224903.704382" HC_abs="16.881032" PMx_abs="3.513190" NOx_abs="87.844528" fuel_abs="96.676531" electricity_abs="0"/>
    </tripinfo>
    <tripinfo id="h3154c1:1" depart="57658.00" departLane="24634507_1" departPos="5.10" departSpeed="0.00" departDelay="0.00" arrival="57789.00" arrivalLane="-266565295#5_1" arrivalPos="172.76" arrivalSpeed="11.83" duration="131.00" routeLength="1206.22" waitingTime="12.00" waitingCount="2" stopTime="0.00" timeLoss="33.09" rerouteNo="1" devices="tripinfo_h3154c1:1 routing_h3154c1:1 emissions_h3154c1:1" vType="default_016" speedFactor="0.91" vaporized="">
        <emissions CO_abs="4611.559164" CO2_abs="300890.735130" HC_abs="28.028584" PMx_abs="5.077138" NOx_abs="121.505777" fuel_abs="129.340405" electricity_abs="0"/>
    </tripinfo>
    <tripinfo id="carIn12365:1" depart="57713.00" departLane="315358244_1" departPos="5.10" departSpeed="0.00" departDelay="0.50" arrival="57791.00" arrivalLane="447569997#1_1" arrivalPos="180.93" arrivalSpeed="7.65" duration="78.00" routeLength="718.04" waitingTime="5.00" waitingCount="1" stopTime="0.00" timeLoss="16.04" rerouteNo="1" devices="tripinfo_carIn12365:1 routing_carIn12365:1 emissions_carIn12365:1" vType="default_016" speedFactor="0.99" vaporized="">
        <emissions CO_abs="2650.579756" CO2_abs="160364.334090" HC_abs="15.762189" PMx_abs="2.518026" NOx_abs="63.447589" fuel_abs="68.934413" electricity_abs="0"/>
    </tripinfo>
    <tripinfo id="carIn86816:1" depart="57617.00" departLane="128361102#0_1" departPos="5.10" departSpeed="0.00" departDelay="0.80" arrival="57792.00" arrivalLane="201956811#0_1" arrivalPos="40.40" arrivalSpeed="13.32" duration="175.00" routeLength="2067.33" waitingTime="0.00" waitingCount="0" stopTime="0.00" timeLoss="16.71" rerouteNo="1" devices="tripinfo_carIn86816:1 routing_carIn86816:1 emissions_carIn86816:1" vType="default_016" speedFactor="0.96" vaporized="">
        <emissions CO_abs="4746.595568" CO2_abs="402751.390084" HC_abs="30.979286" PMx_abs="6.295810" NOx_abs="157.869272" fuel_abs="173.125763" electricity_abs="0"/>
    </tripinfo>
    <tripinfo id="h16072c2:3" depart="57663.00" departLane="315358254#0_1" departPos="5.10" departSpeed="0.00" departDelay="2.50" arrival="57793.00" arrivalLane="386687235_1" arrivalPos="80.84" arrivalSpeed="15.36" duration="130.00" routeLength="1611.92" waitingTime="4.00" waitingCount="2" stopTime="0.00" timeLoss="29.59" rerouteNo="1" devices="tripinfo_h16072c2:3 routing_h16072c2:3 emissions_h16072c2:3" vType="default_016" speedFactor="1.18" vaporized="">
        <emissions CO_abs="4997.580981" CO2_abs="374167.427545" HC_abs="31.465647" PMx_abs="6.622229" NOx_abs="150.593660" fuel_abs="160.838135" electricity_abs="0"/>
    </tripinfo>
    <tripinfo id="carIn48184:1" depart="57613.00" departLane="-306240162#1_0" departPos="5.10" departSpeed="0.00" departDelay="0.70" arrival="57794.00" arrivalLane="386687235_1" arrivalPos="80.84" arrivalSpeed="12.91" duration="181.00" routeLength="2257.41" waitingTime="5.00" waitingCount="2" stopTime="0.00" timeLoss="31.41" rerouteNo="1" devices="tripinfo_carIn48184:1 routing_carIn48184:1 emissions_carIn48184:1" vType="default_016" speedFactor="1.00" vaporized="">
        <emissions CO_abs="6574.862710" CO2_abs="500798.420125" HC_abs="41.720916" PMx_abs="8.770407" NOx_abs="200.546462" fuel_abs="215.271346" electricity_abs="0"/>
    </tripinfo>
    <tripinfo id="carIn129809:1" depart="57729.00" departLane="-447569998#1_1" departPos="5.10" departSpeed="0.00" departDelay="1.00" arrival="57794.00" arrivalLane="-315358244_1" arrivalPos="33.95" arrivalSpeed="15.34" duration="65.00" routeLength="706.49" waitingTime="0.00" waitingCount="0" stopTime="0.00" timeLoss="10.12" rerouteNo="1" devices="tripinfo_carIn129809:1 routing_carIn129809:1 emissions_carIn129809:1" vType="default_015" speedFactor="1.11" vaporized="">
        <emissions CO_abs="2640.620447" CO2_abs="171430.321360" HC_abs="15.954187" PMx_abs="2.863629" NOx_abs="68.461712" fuel_abs="73.690862" electricity_abs="0"/>
    </tripinfo>
    <tripinfo id="carIn77943:1" depart="57608.00" departLane="124812856#0_1" departPos="5.10" departSpeed="0.00" departDelay="2.50" arrival="57805.00" arrivalLane="-128361102#1_1" arrivalPos="274.68" arrivalSpeed="13.63" duration="197.00" routeLength="2250.49" waitingTime="0.00" waitingCount="0" stopTime="0.00" timeLoss="35.64" rerouteNo="1" devices="tripinfo_carIn77943:1 routing_carIn77943:1 emissions_carIn77943:1" vType="default_016" speedFactor="1.02" vaporized="">
        <emissions CO_abs="7198.866357" CO2_abs="531838.372798" HC_abs="45.230708" PMx_abs="9.088340" NOx_abs="214.235750" fuel_abs="228.614317" electricity_abs="0"/>
    </tripinfo>
    <tripinfo id="carIn50326:1" depart="57651.00" departLane="128361102#0_1" departPos="5.10" departSpeed="0.00" departDelay="0.30" arrival="57807.00" arrivalLane="18809673#0_1" arrivalPos="473.56" arrivalSpeed="12.92" duration="156.00" routeLength="1591.07" waitingTime="0.00" waitingCount="0" stopTime="0.00" timeLoss="16.36" rerouteNo="1" devices="tripinfo_carIn50326:1 routing_carIn50326:1 emissions_carIn50326:1" vType="default_016" speedFactor="0.93" vaporized="">
        <emissions CO_abs="4506.926993" CO2_abs="313640.563181" HC_abs="27.750577" PMx_abs="4.699848" NOx_abs="122.450690" fuel_abs="134.821713" electricity_abs="0"/>
    </tripinfo>
    <tripinfo id="carIn81046:1" depart="57611.00" departLane="124812856#0_1" departPos="5.10" departSpeed="0.00" departDelay="2.50" arrival="57811.00" arrivalLane="-128361102#1_1" arrivalPos="274.68" arrivalSpeed="11.99" duration="200.00" routeLength="2250.49" waitingTime="0.00" waitingCount="0" stopTime="0.00" timeLoss="24.84" rerouteNo="1" devices="tripinfo_carIn81046:1 routing_carIn81046:1 emissions_carIn81046:1" vType="default_016" speedFactor="0.94" vaporized="">
        <emissions CO_abs="5802.628361" CO2_abs="458546.056080" HC_abs="37.084650" PMx_abs="7.185601" NOx_abs="180.371207" fuel_abs="197.109789" electricity_abs="0"/>
    </tripinfo>
    <tripinfo id="carIn81860:1" depart="57712.00" departLane="128361102#0_1" departPos="5.10" departSpeed="0.00" departDelay="0.60" arrival="57811.00" arrivalLane="-24634517#17_1" arrivalPos="6.43" arrivalSpeed="8.27" duration="99.00" routeLength="1229.64" waitingTime="0.00" waitingCount="0" stopTime="0.00" timeLoss="15.09" rerouteNo="1" devices="tripinfo_carIn81860:1 routing_carIn81860:1 emissions_carIn81860:1" vType="default_016" speedFactor="1.09" vaporized="">
        <emissions CO_abs="3367.953417" CO2_abs="260782.381979" HC_abs="21.419424" PMx_abs="4.350851" NOx_abs="103.449153" fuel_abs="112.099183" electricity_abs="0"/>
    </tripinfo>
    <tripinfo id="carIn77438:1" depart="57614.00" departLane="124812856#0_1" departPos="5.10" departSpeed="0.00" departDelay="1.10" arrival="57813.00" arrivalLane="-128361102#1_1" arrivalPos="274.68" arrivalSpeed="14.91" duration="199.00" routeLength="2250.49" waitingTime="0.00" waitingCount="0" stopTime="0.00" timeLoss="53.56" rerouteNo="1" devices="tripinfo_carIn77438:1 routing_carIn77438:1 emissions_carIn77438:1" vType="default_016" speedFactor="1.14" vaporized="">
        <emissions CO_abs="7260.517507" CO2_abs="535029.195676" HC_abs="45.637467" PMx_abs="9.231314" NOx_abs="216.494876" fuel_abs="229.985761" electricity_abs="0"/>
    </tripinfo>
    <tripinfo id="carIn82278:1" depart="57702.00" departLane="-306240162#1_0" departPos="5.10" departSpeed="0.00" departDelay="0.70" arrival="57813.00" arrivalLane="399835085#1_1" arrivalPos="212.23" arrivalSpeed="7.95" duration="111.00" routeLength="1093.26" waitingTime="21.00" waitingCount="1" stopTime="0.00" timeLoss="35.25" rerouteNo="1" devices="tripinfo_carIn82278:1 routing_carIn82278:1 emissions_carIn82278:1" vType="default_016" speedFactor="1.04" vaporized="">
        <emissions CO_abs="6817.769744" CO2_abs="320762.936247" HC_abs="38.665607" PMx_abs="6.252301" NOx_abs="133.074406" fuel_abs="137.883176" electricity_abs="0"/>
    </tripinfo>
    <tripinfo id="randUni14624:1" depart="57606.00" departLane="315358244_1" departPos="5.10" departSpeed="0.00" departDelay="0.80" arrival="57815.00" arrivalLane="-25149001#4_1" arrivalPos="105.67" arrivalSpeed="8.38" duration="209.00" routeLength="2803.98" waitingTime="5.00" waitingCount="1" stopTime="0.00" timeLoss="26.35" rerouteNo="1" devices="tripinfo_randUni14624:1 routing_randUni14624:1 emissions_randUni14624:1" vType="random_016" speedFactor="1.15" vaporized="">
        <emissions CO_abs="5410.944802" CO2_abs="516272.159136" HC_abs="36.174120" PMx_abs="8.218330" NOx_abs="199.940953" fuel_abs="221.922975" electricity_abs="0"/>
    </tripinfo>
    <tripinfo id="carIn107842:1" depart="57623.00" departLane="124812856#0_1" departPos="5.10" departSpeed="0.00" departDelay="1.90" arrival="57815.00" arrivalLane="-128361102#1_1" arrivalPos="274.68" arrivalSpeed="14.71" duration="192.00" routeLength="2250.49" waitingTime="0.00" waitingCount="0" stopTime="0.00" timeLoss="40.35" rerouteNo="1" devices="tripinfo_carIn107842:1 routing_carIn107842:1 emissions_carIn107842:1" vType="default_016" speedFactor="1.09" vaporized="">
        <emissions CO_abs="6332.463068" CO2_abs="491931.242246" HC_abs="40.320319" PMx_abs="8.291017" NOx_abs="196.872542" fuel_abs="211.459916" electricity_abs="0"/>
    </tripinfo>
    <tripinfo id="h15382c1:3" depart="57626.00" departLane="124812856#0_1" departPos="5.10" departSpeed="0.00" departDelay="3.80" arrival="57816.00" arrivalLane="-128361102#1_1" arrivalPos="274.68" arrivalSpeed="15.39" duration="190.00" routeLength="2250.49" waitingTime="0.00" waitingCount="0" stopTime="0.00" timeLoss="42.76" rerouteNo="1" devices="tripinfo_h15382c1:3 routing_h15382c1:3 emissions_h15382c1:3" vType="default_016" speedFactor="1.11" vaporized="">
        <emissions CO_abs="7011.343404" CO2_abs="540214.178178" HC_abs="44.506005" PMx_abs="9.330483" NOx_abs="217.613104" fuel_abs="232.214352" electricity_abs="0"/>
    </tripinfo>
    <tripinfo id="h11737c1:1" depart="57665.00" departLane="272042143_1" departPos="5.10" departSpeed="0.00" departDelay="1.50" arrival="57818.00" arrivalLane="-315358254#1_1" arrivalPos="137.16" arrivalSpeed="12.71" duration="153.00" routeLength="1596.88" waitingTime="15.00" waitingCount="1" stopTime="0.00" timeLoss="31.74" rerouteNo="1" devices="tripinfo_h11737c1:1 routing_h11737c1:1 emissions_h11737c1:1" vType="default_016" speedFactor="0.97" vaporized="">
        <emissions CO_abs="5657.256997" CO2_abs="344500.633009" HC_abs="33.775020" PMx_abs="5.699575" NOx_abs="137.241527" fuel_abs="148.087097" electricity_abs="0"/>
    </tripinfo>
    <tripinfo id="carIn46110:1" depart="57684.00" departLane="315358244_1" departPos="5.10" departSpeed="0.00" departDelay="1.20" arrival="57818.00" arrivalLane="32978638#0_1" arrivalPos="49.29" arrivalSpeed="15.01" duration="134.00" routeLength="1764.04" waitingTime="2.00" waitingCount="1" stopTime="0.00" timeLoss="21.02" rerouteNo="1" devices="tripinfo_carIn46110:1 routing_carIn46110:1 emissions_carIn46110:1" vType="default_016" speedFactor="1.13" vaporized="">
        <emissions CO_abs="4471.360992" CO2_abs="384414.068427" HC_abs="29.349779" PMx_abs="6.586984" NOx_abs="152.872268" fuel_abs="165.242536" electricity_abs="0"/>
    </tripinfo>
    <tripinfo id="h17600c1:1" depart="57662.00" departLane="272042143_1" departPos="5.10" departSpeed="0.00" departDelay="0.30" arrival="57819.00" arrivalLane="201238729#3_1" arrivalPos="431.02" arrivalSpeed="15.10" duration="157.00" routeLength="2100.26" waitingTime="1.00" waitingCount="1" stopTime="0.00" timeLoss="20.15" rerouteNo="1" devices="tripinfo_h17600c1:1 routing_h17600c1:1 emissions_h17600c1:1" vType="default_016" speedFactor="1.11" vaporized="">
        <emissions CO_abs="4284.031926" CO2_abs="389995.581449" HC_abs="28.562621" PMx_abs="6.370529" NOx_abs="152.634143" fuel_abs="167.642084" electricity_abs="0"/>
    </tripinfo>
    <tripinfo id="carIn12858:1" depart="57661.00" departLane="128361109#1_1" departPos="5.10" departSpeed="0.00" departDelay="0.90" arrival="57821.00" arrivalLane="399835085#1_1" arrivalPos="212.23" arrivalSpeed="6.59" duration="160.00" routeLength="1738.12" waitingTime="4.00" waitingCount="1" stopTime="0.00" timeLoss="32.03" rerouteNo="1" devices="tripinfo_carIn12858:1 routing_carIn12858:1 emissions_carIn12858:1" vType="default_016" speedFactor="0.90" vaporized="">
        <emissions CO_abs="7048.760370" CO2_abs="452328.228036" HC_abs="42.794522" PMx_abs="8.345023" NOx_abs="185.025775" fuel_abs="194.436318" electricity_abs="0"/>
    </tripinfo>
    <tripinfo id="carIn82220:1" depart="57619.00" departLane="-306240162#1_0" departPos="5.10" departSpeed="0.00" departDelay="3.50" arrival="57824.00" arrivalLane="386687235_1" arrivalPos="80.84" arrivalSpeed="12.80" duration="205.00" routeLength="2257.41" waitingTime="13.00" waitingCount="2" stopTime="0.00" timeLoss="44.92" rerouteNo="1" devices="tripinfo_carIn82220:1 routing_carIn82220:1 emissions_carIn82220:1" vType="default_016" speedFactor="0.93" vaporized="">
        <emissions CO_abs="7455.816541" CO2_abs="499371.714617" HC_abs="45.677288" PMx_abs="8.707931" NOx_abs="201.771950" fuel_abs="214.658691" electricity_abs="0"/>
    </tripinfo>
    <tripinfo id="carIn462:1" depart="57622.00" departLane="-306240162#1_0" departPos="5.10" departSpeed="0.00" departDelay="4.80" arrival="57824.00" arrivalLane="386687235_2" arrivalPos="80.84" arrivalSpeed="13.24" duration="202.00" routeLength="2257.41" waitingTime="14.00" waitingCount="2" stopTime="0.00" timeLoss="49.81" rerouteNo="1" devices="tripinfo_carIn462:1 routing_carIn462:1 emissions_carIn462:1" vType="default_016" speedFactor="0.98" vaporized="">
        <emissions CO_abs="7291.599951" CO2_abs="526445.101162" HC_abs="45.581905" PMx_abs="9.093079" NOx_abs="211.466582" fuel_abs="226.296109" electricity_abs="0"/>
    </tripinfo>