<?xml version="1.0" encoding="UTF-8"?>

<!-- generated on 2021-10-26 11:40:05 by Eclipse SUMO sumo Version 1.10.0
<configuration xmlns:xsi="http://www.w3.org/2001/XMLSchema-instance" xsi:noNamespaceSchemaLocation="http://sumo.dlr.de/xsd/sumoConfiguration.xsd">

    <input>
        <net-file value="/Users/behradkoohy/sumo-scratchpad/RESCO/environments/ingolstadt21/ingolstadt21.net.xml"/>
        <route-files value="/Users/behradkoohy/sumo-scratchpad/RESCO/environments/ingolstadt21/ingolstadt21.rou.xml"/>
    </input>

    <output>
        <tripinfo-output value="/Users/behradkoohy/sumo-scratchpad/RESCO/logs/MAXWAVE-tr0-ingolstadt21-21-wave-wait/tripinfo_24.xml"/>
        <tripinfo-output.write-unfinished value="true"/>
    </output>

    <time>
        <begin value="57600"/>
        <end value="61200"/>
    </time>

    <processing>
        <time-to-teleport value="-1"/>
    </processing>

    <report>
        <no-warnings value="true"/>
        <no-step-log value="true"/>
    </report>

    <emissions>
        <device.emissions.probability value="1"/>
    </emissions>

    <traci_server>
        <remote-port value="57362"/>
    </traci_server>

    <random_number>
        <random value="true"/>
    </random_number>

</configuration>
-->

<tripinfos xmlns:xsi="http://www.w3.org/2001/XMLSchema-instance" xsi:noNamespaceSchemaLocation="http://sumo.dlr.de/xsd/tripinfo_file.xsd">
    <tripinfo id="h15454c2:3" depart="57612.00" departLane="24608844_1" departPos="5.10" departSpeed="0.00" departDelay="0.50" arrival="57653.00" arrivalLane="32978638#0_1" arrivalPos="49.29" arrivalSpeed="12.33" duration="41.00" routeLength="354.79" waitingTime="0.00" waitingCount="0" stopTime="0.00" timeLoss="6.35" rerouteNo="1" devices="tripinfo_h15454c2:3 routing_h15454c2:3 emissions_h15454c2:3" vType="default_016" speedFactor="0.98" vaporized="">
        <emissions CO_abs="2006.986027" CO2_abs="104880.404899" HC_abs="11.578262" PMx_abs="1.803161" NOx_abs="42.909580" fuel_abs="45.083977" electricity_abs="0"/>
    </tripinfo>
    <tripinfo id="carIn60260:1" depart="57606.00" departLane="315358254#0_1" departPos="5.10" departSpeed="0.00" departDelay="0.90" arrival="57658.00" arrivalLane="399835085#1_1" arrivalPos="212.23" arrivalSpeed="8.59" duration="52.00" routeLength="430.98" waitingTime="0.00" waitingCount="0" stopTime="0.00" timeLoss="7.72" rerouteNo="1" devices="tripinfo_carIn60260:1 routing_carIn60260:1 emissions_carIn60260:1" vType="default_016" speedFactor="1.06" vaporized="">
        <emissions CO_abs="2166.473645" CO2_abs="109576.297432" HC_abs="12.406909" PMx_abs="1.868281" NOx_abs="44.839839" fuel_abs="47.102629" electricity_abs="0"/>
    </tripinfo>
    <tripinfo id="carIn53971:1" depart="57640.00" departLane="272042143_1" departPos="5.10" departSpeed="0.00" departDelay="0.80" arrival="57697.00" arrivalLane="24634414#1_1" arrivalPos="162.19" arrivalSpeed="7.32" duration="57.00" routeLength="493.04" waitingTime="0.00" waitingCount="0" stopTime="0.00" timeLoss="8.68" rerouteNo="1" devices="tripinfo_carIn53971:1 routing_carIn53971:1 emissions_carIn53971:1" vType="default_016" speedFactor="0.95" vaporized="">
        <emissions CO_abs="2506.407346" CO2_abs="129069.448181" HC_abs="14.406369" PMx_abs="2.183354" NOx_abs="52.617020" fuel_abs="55.481980" electricity_abs="0"/>
    </tripinfo>
    <tripinfo id="S5R_frequency1.2" depart="57612.00" departLane="315358250#0_1" departPos="12.10" departSpeed="0.00" departDelay="0.40" arrival="57706.00" arrivalLane="386687235_1" arrivalPos="80.84" arrivalSpeed="13.49" duration="94.00" routeLength="1115.62" waitingTime="0.00" waitingCount="0" stopTime="0.00" timeLoss="11.92" rerouteNo="1" devices="tripinfo_S5R_frequency1.2 routing_S5R_frequency1.2 emissions_S5R_frequency1.2" vType="bus" speedFactor="1.00" vaporized="">
        <emissions CO_abs="1873.759091" CO2_abs="1172088.495685" HC_abs="403.712579" PMx_abs="201.373490" NOx_abs="9089.237408" fuel_abs="499.891087" electricity_abs="0"/>
    </tripinfo>
    <tripinfo id="h12244c1:3" depart="57612.00" departLane="315358244_1" departPos="5.10" departSpeed="0.00" departDelay="0.40" arrival="57711.00" arrivalLane="386687235_1" arrivalPos="80.84" arrivalSpeed="13.16" duration="99.00" routeLength="1186.14" waitingTime="0.00" waitingCount="0" stopTime="0.00" timeLoss="9.66" rerouteNo="1" devices="tripinfo_h12244c1:3 routing_h12244c1:3 emissions_h12244c1:3" vType="default_016" speedFactor="0.97" vaporized="">
        <emissions CO_abs="2478.707247" CO2_abs="220857.437648" HC_abs="16.414485" PMx_abs="3.331842" NOx_abs="85.566448" fuel_abs="94.937360" electricity_abs="0"/>
    </tripinfo>
    <tripinfo id="h3688c1:1" depart="57625.00" departLane="201201950#1_1" departPos="5.10" departSpeed="0.00" departDelay="0.00" arrival="57719.00" arrivalLane="32978638#0_1" arrivalPos="49.29" arrivalSpeed="15.39" duration="94.00" routeLength="1089.75" waitingTime="6.00" waitingCount="1" stopTime="0.00" timeLoss="21.98" rerouteNo="1" devices="tripinfo_h3688c1:1 routing_h3688c1:1 emissions_h3688c1:1" vType="default_016" speedFactor="1.11" vaporized="">
        <emissions CO_abs="3856.408033" CO2_abs="274628.064158" HC_abs="24.015122" PMx_abs="4.843000" NOx_abs="110.922049" fuel_abs="118.050687" electricity_abs="0"/>
    </tripinfo>
    <tripinfo id="h7800c1:5" depart="57696.00" departLane="-447569998#1_1" departPos="5.10" departSpeed="0.00" departDelay="0.00" arrival="57719.00" arrivalLane="-447569998#1_1" arrivalPos="180.76" arrivalSpeed="8.38" duration="23.00" routeLength="175.66" waitingTime="0.00" waitingCount="0" stopTime="0.00" timeLoss="3.14" rerouteNo="1" devices="tripinfo_h7800c1:5 routing_h7800c1:5 emissions_h7800c1:5" vType="default_016" speedFactor="1.10" vaporized="">
        <emissions CO_abs="1050.182262" CO2_abs="49964.755600" HC_abs="5.929578" PMx_abs="0.806775" NOx_abs="20.211479" fuel_abs="21.478040" electricity_abs="0"/>
    </tripinfo>
    <tripinfo id="h9563c2:5" depart="57631.00" departLane="315358244_1" departPos="5.10" departSpeed="0.00" departDelay="0.70" arrival="57721.00" arrivalLane="386687235_1" arrivalPos="80.84" arrivalSpeed="13.70" duration="90.00" routeLength="1186.14" waitingTime="0.00" waitingCount="0" stopTime="0.00" timeLoss="8.27" rerouteNo="1" devices="tripinfo_h9563c2:5 routing_h9563c2:5 emissions_h9563c2:5" vType="default_016" speedFactor="1.06" vaporized="">
        <emissions CO_abs="2484.464292" CO2_abs="225257.112914" HC_abs="16.535026" PMx_abs="3.623753" NOx_abs="88.177368" fuel_abs="96.828260" electricity_abs="0"/>
    </tripinfo>
    <tripinfo id="carIn80064:1" depart="57603.00" departLane="128361109#1_1" departPos="5.10" departSpeed="0.00" departDelay="0.40" arrival="57725.00" arrivalLane="-315358254#1_1" arrivalPos="137.16" arrivalSpeed="12.84" duration="122.00" routeLength="1587.97" waitingTime="7.00" waitingCount="1" stopTime="0.00" timeLoss="31.55" rerouteNo="1" devices="tripinfo_carIn80064:1 routing_carIn80064:1 emissions_carIn80064:1" vType="default_016" speedFactor="0.99" vaporized="">
        <emissions CO_abs="6795.132099" CO2_abs="440004.556281" HC_abs="41.489868" PMx_abs="8.630293" NOx_abs="182.583366" fuel_abs="189.138149" electricity_abs="0"/>
    </tripinfo>
    <tripinfo id="h4538c1:1" depart="57701.00" departLane="-10427692#1_1" departPos="5.10" departSpeed="0.00" departDelay="0.00" arrival="57741.00" arrivalLane="-128361102#1_1" arrivalPos="274.68" arrivalSpeed="16.46" duration="40.00" routeLength="440.74" waitingTime="3.00" waitingCount="1" stopTime="0.00" timeLoss="13.31" rerouteNo="1" devices="tripinfo_h4538c1:1 routing_h4538c1:1 emissions_h4538c1:1" vType="default_016" speedFactor="1.19" vaporized="">
        <emissions CO_abs="2056.512199" CO2_abs="128153.000741" HC_abs="12.314877" PMx_abs="2.391945" NOx_abs="52.687140" fuel_abs="55.087409" electricity_abs="0"/>
    </tripinfo>
    <tripinfo id="carIn86816:1" depart="57617.00" departLane="128361102#0_1" departPos="5.10" departSpeed="0.00" departDelay="0.80" arrival="57745.00" arrivalLane="201956811#0_1" arrivalPos="40.40" arrivalSpeed="17.84" duration="128.00" routeLength="2067.33" waitingTime="0.00" waitingCount="0" stopTime="0.00" timeLoss="16.57" rerouteNo="1" devices="tripinfo_carIn86816:1 routing_carIn86816:1 emissions_carIn86816:1" vType="default_016" speedFactor="1.36" vaporized="">
        <emissions CO_abs="5206.030532" CO2_abs="443627.464259" HC_abs="34.092666" PMx_abs="8.212055" NOx_abs="178.192892" fuel_abs="190.695052" electricity_abs="0"/>
    </tripinfo>
    <tripinfo id="carIn30817:1" depart="57681.00" departLane="315358244_1" departPos="5.10" departSpeed="0.00" departDelay="0.20" arrival="57745.00" arrivalLane="447569997#1_1" arrivalPos="180.93" arrivalSpeed="8.07" duration="64.00" routeLength="718.04" waitingTime="0.00" waitingCount="0" stopTime="0.00" timeLoss="8.30" rerouteNo="1" devices="tripinfo_carIn30817:1 routing_carIn30817:1 emissions_carIn30817:1" vType="default_016" speedFactor="1.10" vaporized="">
        <emissions CO_abs="2142.002419" CO2_abs="153240.994772" HC_abs="13.267848" PMx_abs="2.420064" NOx_abs="60.238029" fuel_abs="65.872053" electricity_abs="0"/>
    </tripinfo>
    <tripinfo id="h317c2:1" depart="57707.00" departLane="-32978638#0_1" departPos="5.10" departSpeed="0.00" departDelay="0.10" arrival="57745.00" arrivalLane="-266565295#5_1" arrivalPos="172.76" arrivalSpeed="13.58" duration="38.00" routeLength="370.53" waitingTime="0.00" waitingCount="0" stopTime="0.00" timeLoss="10.21" rerouteNo="1" devices="tripinfo_h317c2:1 routing_h317c2:1 emissions_h317c2:1" vType="default_016" speedFactor="1.00" vaporized="">
        <emissions CO_abs="2175.765156" CO2_abs="125330.690568" HC_abs="12.871064" PMx_abs="2.352003" NOx_abs="52.211850" fuel_abs="53.874296" electricity_abs="0"/>
    </tripinfo>
    <tripinfo id="h3568c1:3" depart="57656.00" departLane="266565295#5_1" departPos="5.10" departSpeed="0.00" departDelay="0.80" arrival="57746.00" arrivalLane="-24634415_1" arrivalPos="62.03" arrivalSpeed="12.81" duration="90.00" routeLength="807.40" waitingTime="6.00" waitingCount="1" stopTime="0.00" timeLoss="24.13" rerouteNo="1" devices="tripinfo_h3568c1:3 routing_h3568c1:3 emissions_h3568c1:3" vType="default_016" speedFactor="0.98" vaporized="">
        <emissions CO_abs="4275.152647" CO2_abs="246006.857614" HC_abs="25.236648" PMx_abs="4.364374" NOx_abs="100.955852" fuel_abs="105.748192" electricity_abs="0"/>
    </tripinfo>
    <tripinfo id="carIn22761:1" depart="57616.00" departLane="-306240162#1_0" departPos="5.10" departSpeed="0.00" departDelay="2.10" arrival="57750.00" arrivalLane="399835085#1_1" arrivalPos="212.23" arrivalSpeed="6.95" duration="134.00" routeLength="1093.26" waitingTime="30.00" waitingCount="1" stopTime="0.00" timeLoss="44.88" rerouteNo="1" devices="tripinfo_carIn22761:1 routing_carIn22761:1 emissions_carIn22761:1" vType="default_016" speedFactor="0.87" vaporized="">
        <emissions CO_abs="7872.170471" CO2_abs="319995.972629" HC_abs="43.330037" PMx_abs="6.019136" NOx_abs="131.869248" fuel_abs="137.554678" electricity_abs="0"/>
    </tripinfo>
    <tripinfo id="h7181c1:1" depart="57660.00" departLane="315358254#0_1" departPos="5.10" departSpeed="0.00" departDelay="0.10" arrival="57754.00" arrivalLane="306240162#0_0" arrivalPos="220.43" arrivalSpeed="13.40" duration="94.00" routeLength="932.35" waitingTime="14.00" waitingCount="2" stopTime="0.00" timeLoss="31.73" rerouteNo="1" devices="tripinfo_h7181c1:1 routing_h7181c1:1 emissions_h7181c1:1" vType="default_016" speedFactor="0.83" vaporized="">
        <emissions CO_abs="4795.541762" CO2_abs="260768.227353" HC_abs="27.981306" PMx_abs="4.964637" NOx_abs="108.218519" fuel_abs="112.093298" electricity_abs="0"/>
    </tripinfo>
    <tripinfo id="carIn118591:1" depart="57689.00" departLane="315358244_1" departPos="5.10" departSpeed="0.00" departDelay="0.20" arrival="57770.00" arrivalLane="386687235_1" arrivalPos="80.84" arrivalSpeed="15.61" duration="81.00" routeLength="1186.14" waitingTime="0.00" waitingCount="0" stopTime="0.00" timeLoss="8.08" rerouteNo="1" devices="tripinfo_carIn118591:1 routing_carIn118591:1 emissions_carIn118591:1" vType="default_016" speedFactor="1.19" vaporized="">
        <emissions CO_abs="2436.350102" CO2_abs="241628.102917" HC_abs="16.543835" PMx_abs="3.943987" NOx_abs="93.772569" fuel_abs="103.865244" electricity_abs="0"/>
    </tripinfo>
    <tripinfo id="carIn27009:1" depart="57673.00" departLane="-447569998#1_1" departPos="5.10" departSpeed="0.00" departDelay="0.50" arrival="57773.00" arrivalLane="-26677539_1" arrivalPos="152.75" arrivalSpeed="8.27" duration="100.00" routeLength="699.63" waitingTime="1.00" waitingCount="1" stopTime="0.00" timeLoss="16.71" rerouteNo="1" devices="tripinfo_carIn27009:1 routing_carIn27009:1 emissions_carIn27009:1" vType="default_015" speedFactor="1.01" vaporized="">
        <emissions CO_abs="4079.787864" CO2_abs="187093.559469" HC_abs="22.877779" PMx_abs="3.074218" NOx_abs="76.184796" fuel_abs="80.424777" electricity_abs="0"/>
    </tripinfo>
    <tripinfo id="h330c1:1" depart="57736.00" departLane="-32978638#0_1" departPos="5.10" departSpeed="0.00" departDelay="0.20" arrival="57773.00" arrivalLane="-266565295#5_1" arrivalPos="172.76" arrivalSpeed="15.79" duration="37.00" routeLength="370.53" waitingTime="2.00" waitingCount="1" stopTime="0.00" timeLoss="12.83" rerouteNo="1" devices="tripinfo_h330c1:1 routing_h330c1:1 emissions_h330c1:1" vType="default_016" speedFactor="1.16" vaporized="">
        <emissions CO_abs="2308.941404" CO2_abs="132323.062239" HC_abs="13.596019" PMx_abs="2.607109" NOx_abs="55.786971" fuel_abs="56.879839" electricity_abs="0"/>
    </tripinfo>
    <tripinfo id="h645c1:1" depart="57622.00" departLane="266565295#5_1" departPos="5.10" departSpeed="0.00" departDelay="0.40" arrival="57774.00" arrivalLane="-315358244_1" arrivalPos="33.95" arrivalSpeed="13.35" duration="152.00" routeLength="1910.83" waitingTime="0.00" waitingCount="0" stopTime="0.00" timeLoss="12.48" rerouteNo="1" devices="tripinfo_h645c1:1 routing_h645c1:1 emissions_h645c1:1" vType="default_016" speedFactor="0.99" vaporized="">
        <emissions CO_abs="3225.450417" CO2_abs="339415.949742" HC_abs="22.516232" PMx_abs="4.779673" NOx_abs="128.357026" fuel_abs="145.900814" electricity_abs="0"/>
    </tripinfo>
    <tripinfo id="carIn28951:1" depart="57606.00" departLane="10425609#0_1" departPos="5.10" departSpeed="0.00" departDelay="0.20" arrival="57778.00" arrivalLane="-128361102#1_1" arrivalPos="274.68" arrivalSpeed="13.23" duration="172.00" routeLength="2113.04" waitingTime="0.00" waitingCount="0" stopTime="0.00" timeLoss="19.46" rerouteNo="1" devices="tripinfo_carIn28951:1 routing_carIn28951:1 emissions_carIn28951:1" vType="default_016" speedFactor="1.02" vaporized="">
        <emissions CO_abs="4761.527360" CO2_abs="427949.677007" HC_abs="31.513979" PMx_abs="6.552582" NOx_abs="165.938852" fuel_abs="183.957481" electricity_abs="0"/>
    </tripinfo>
    <tripinfo id="carIn48184:1" depart="57613.00" departLane="-306240162#1_0" departPos="5.10" departSpeed="0.00" departDelay="0.70" arrival="57783.00" arrivalLane="386687235_1" arrivalPos="80.84" arrivalSpeed="14.08" duration="170.00" routeLength="2257.41" waitingTime="4.00" waitingCount="1" stopTime="0.00" timeLoss="30.51" rerouteNo="1" devices="tripinfo_carIn48184:1 routing_carIn48184:1 emissions_carIn48184:1" vType="default_016" speedFactor="1.07" vaporized="">
        <emissions CO_abs="6737.859573" CO2_abs="529816.747511" HC_abs="43.198699" PMx_abs="9.523148" NOx_abs="212.864046" fuel_abs="227.744586" electricity_abs="0"/>
    </tripinfo>
    <tripinfo id="carIn82220:1" depart="57619.00" departLane="-306240162#1_0" departPos="5.10" departSpeed="0.00" departDelay="3.50" arrival="57783.00" arrivalLane="386687235_2" arrivalPos="80.84" arrivalSpeed="14.14" duration="164.00" routeLength="2257.41" waitingTime="0.00" waitingCount="0" stopTime="0.00" timeLoss="28.56" rerouteNo="1" devices="tripinfo_carIn82220:1 routing_carIn82220:1 emissions_carIn82220:1" vType="default_016" speedFactor="1.10" vaporized="">
        <emissions CO_abs="5812.534068" CO2_abs="494533.601430" HC_abs="37.965246" PMx_abs="8.571801" NOx_abs="196.892617" fuel_abs="212.577960" electricity_abs="0"/>
    </tripinfo>
    <tripinfo id="h3154c1:1" depart="57658.00" departLane="24634507_1" departPos="5.10" departSpeed="0.00" departDelay="0.00" arrival="57789.00" arrivalLane="-266565295#5_1" arrivalPos="172.76" arrivalSpeed="11.74" duration="131.00" routeLength="1206.22" waitingTime="4.00" waitingCount="1" stopTime="0.00" timeLoss="27.00" rerouteNo="1" devices="tripinfo_h3154c1:1 routing_h3154c1:1 emissions_h3154c1:1" vType="default_016" speedFactor="0.86" vaporized="">
        <emissions CO_abs="5072.420854" CO2_abs="303995.815707" HC_abs="30.190225" PMx_abs="5.185329" NOx_abs="123.620595" fuel_abs="130.675366" electricity_abs="0"/>
    </tripinfo>
    <tripinfo id="carIn12365:1" depart="57713.00" departLane="315358244_1" departPos="5.10" departSpeed="0.00" departDelay="0.50" arrival="57790.00" arrivalLane="447569997#1_1" arrivalPos="180.93" arrivalSpeed="7.65" duration="77.00" routeLength="718.04" waitingTime="7.00" waitingCount="1" stopTime="0.00" timeLoss="17.45" rerouteNo="1" devices="tripinfo_carIn12365:1 routing_carIn12365:1 emissions_carIn12365:1" vType="default_016" speedFactor="1.03" vaporized="">
        <emissions CO_abs="2827.231621" CO2_abs="160250.191791" HC_abs="16.541504" PMx_abs="2.640881" NOx_abs="64.154258" fuel_abs="68.885308" electricity_abs="0"/>
    </tripinfo>
    <tripinfo id="h3326c1:2" depart="57656.00" departLane="22716069#0_1" departPos="5.10" departSpeed="0.00" departDelay="0.00" arrival="57791.00" arrivalLane="24634517#13_1" arrivalPos="111.62" arrivalSpeed="10.99" duration="135.00" routeLength="1312.81" waitingTime="0.00" waitingCount="0" stopTime="0.00" timeLoss="15.48" rerouteNo="1" devices="tripinfo_h3326c1:2 routing_h3326c1:2 emissions_h3326c1:2" vType="default_016" speedFactor="0.82" vaporized="">
        <emissions CO_abs="4485.254382" CO2_abs="292014.819579" HC_abs="27.168612" PMx_abs="4.554183" NOx_abs="115.852515" fuel_abs="125.525561" electricity_abs="0"/>
    </tripinfo>
    <tripinfo id="carIn107084:1" depart="57601.00" departLane="124812856#0_1" departPos="5.10" departSpeed="0.00" departDelay="0.70" arrival="57793.00" arrivalLane="-128361102#1_1" arrivalPos="274.68" arrivalSpeed="14.13" duration="192.00" routeLength="2250.49" waitingTime="2.00" waitingCount="1" stopTime="0.00" timeLoss="36.13" rerouteNo="1" devices="tripinfo_carIn107084:1 routing_carIn107084:1 emissions_carIn107084:1" vType="default_016" speedFactor="1.06" vaporized="">
        <emissions CO_abs="6895.193005" CO2_abs="533284.557411" HC_abs="43.889162" PMx_abs="8.988017" NOx_abs="213.171201" fuel_abs="229.235973" electricity_abs="0"/>
    </tripinfo>
    <tripinfo id="h11737c1:1" depart="57665.00" departLane="272042143_1" departPos="5.10" departSpeed="0.00" departDelay="1.50" arrival="57797.00" arrivalLane="-315358254#1_1" arrivalPos="137.16" arrivalSpeed="13.93" duration="132.00" routeLength="1596.88" waitingTime="2.00" waitingCount="1" stopTime="0.00" timeLoss="19.17" rerouteNo="1" devices="tripinfo_h11737c1:1 routing_h11737c1:1 emissions_h11737c1:1" vType="default_016" speedFactor="1.04" vaporized="">
        <emissions CO_abs="4098.657815" CO2_abs="342441.104029" HC_abs="26.546057" PMx_abs="5.434045" NOx_abs="134.140102" fuel_abs="147.200900" electricity_abs="0"/>
    </tripinfo>
    <tripinfo id="h5979c1:5" depart="57669.00" departLane="399835085#1_1" departPos="5.10" departSpeed="0.00" departDelay="0.00" arrival="57801.00" arrivalLane="-315358254#1_1" arrivalPos="137.16" arrivalSpeed="11.86" duration="132.00" routeLength="659.33" waitingTime="34.00" waitingCount="1" stopTime="0.00" timeLoss="51.38" rerouteNo="1" devices="tripinfo_h5979c1:5 routing_h5979c1:5 emissions_h5979c1:5" vType="default_016" speedFactor="0.92" vaporized="">
        <emissions CO_abs="8772.081765" CO2_abs="256826.784967" HC_abs="45.869192" PMx_abs="4.801868" NOx_abs="107.878584" fuel_abs="110.402450" electricity_abs="0"/>
    </tripinfo>
    <tripinfo id="carIn129809:1" depart="57729.00" departLane="-447569998#1_1" departPos="5.10" departSpeed="0.00" departDelay="1.00" arrival="57802.00" arrivalLane="-315358244_1" arrivalPos="33.95" arrivalSpeed="12.67" duration="73.00" routeLength="706.49" waitingTime="0.00" waitingCount="0" stopTime="0.00" timeLoss="7.71" rerouteNo="1" devices="tripinfo_carIn129809:1 routing_carIn129809:1 emissions_carIn129809:1" vType="default_015" speedFactor="0.93" vaporized="">
        <emissions CO_abs="2583.346440" CO2_abs="165973.689877" HC_abs="15.596374" PMx_abs="2.573349" NOx_abs="65.526104" fuel_abs="71.345566" electricity_abs="0"/>
    </tripinfo>
    <tripinfo id="carIn82278:1" depart="57702.00" departLane="-306240162#1_0" departPos="5.10" departSpeed="0.00" departDelay="0.70" arrival="57803.00" arrivalLane="399835085#1_1" arrivalPos="212.23" arrivalSpeed="7.81" duration="101.00" routeLength="1093.26" waitingTime="10.00" waitingCount="1" stopTime="0.00" timeLoss="24.95" rerouteNo="1" devices="tripinfo_carIn82278:1 routing_carIn82278:1 emissions_carIn82278:1" vType="default_016" speedFactor="1.03" vaporized="">
        <emissions CO_abs="5132.895205" CO2_abs="296355.624296" HC_abs="30.348771" PMx_abs="5.483666" NOx_abs="120.515926" fuel_abs="127.390944" electricity_abs="0"/>
    </tripinfo>
    <tripinfo id="carIn77943:1" depart="57608.00" departLane="124812856#0_1" departPos="5.10" departSpeed="0.00" departDelay="2.50" arrival="57806.00" arrivalLane="-128361102#1_1" arrivalPos="274.68" arrivalSpeed="13.19" duration="198.00" routeLength="2250.49" waitingTime="0.00" waitingCount="0" stopTime="0.00" timeLoss="25.39" rerouteNo="1" devices="tripinfo_carIn77943:1 routing_carIn77943:1 emissions_carIn77943:1" vType="default_016" speedFactor="0.96" vaporized="">
        <emissions CO_abs="5415.450409" CO2_abs="452576.314033" HC_abs="35.174457" PMx_abs="7.000737" NOx_abs="177.011583" fuel_abs="194.543562" electricity_abs="0"/>
    </tripinfo>
    <tripinfo id="carIn107282:1" depart="57749.00" departLane="-447569998#1_1" departPos="5.10" departSpeed="0.00" departDelay="0.00" arrival="57808.00" arrivalLane="315358242#0_1" arrivalPos="165.37" arrivalSpeed="11.85" duration="59.00" routeLength="448.50" waitingTime="2.00" waitingCount="1" stopTime="0.00" timeLoss="11.65" rerouteNo="1" devices="tripinfo_carIn107282:1 routing_carIn107282:1 emissions_carIn107282:1" vType="default_016" speedFactor="0.88" vaporized="">
        <emissions CO_abs="2263.300070" CO2_abs="111068.192406" HC_abs="12.867598" PMx_abs="1.821224" NOx_abs="44.900546" fuel_abs="47.744114" electricity_abs="0"/>
    </tripinfo>
    <tripinfo id="carIn12858:1" depart="57661.00" departLane="128361109#1_1" departPos="5.10" departSpeed="0.00" departDelay="0.90" arrival="57810.00" arrivalLane="399835085#1_1" arrivalPos="212.23" arrivalSpeed="7.91" duration="149.00" routeLength="1738.12" waitingTime="8.00" waitingCount="2" stopTime="0.00" timeLoss="37.87" rerouteNo="1" devices="tripinfo_carIn12858:1 routing_carIn12858:1 emissions_carIn12858:1" vType="default_016" speedFactor="1.03" vaporized="">
        <emissions CO_abs="7711.489929" CO2_abs="496786.726379" HC_abs="46.972035" PMx_abs="9.621695" NOx_abs="204.680201" fuel_abs="213.546531" electricity_abs="0"/>
    </tripinfo>
    <tripinfo id="carIn116184:1" depart="57627.00" departLane="-306240162#1_0" departPos="5.10" departSpeed="0.00" departDelay="0.10" arrival="57813.00" arrivalLane="386687235_2" arrivalPos="80.84" arrivalSpeed="13.66" duration="186.00" routeLength="2257.41" waitingTime="12.00" waitingCount="2" stopTime="0.00" timeLoss="41.11" rerouteNo="1" devices="tripinfo_carIn116184:1 routing_carIn116184:1 emissions_carIn116184:1" vType="default_016" speedFactor="1.03" vaporized="">
        <emissions CO_abs="7093.189151" CO2_abs="546529.456163" HC_abs="45.133656" PMx_abs="9.501031" NOx_abs="218.403100" fuel_abs="234.929154" electricity_abs="0"/>
    </tripinfo>
    <tripinfo id="carIn462:1" depart="57622.00" departLane="-306240162#1_0" departPos="5.10" departSpeed="0.00" departDelay="4.80" arrival="57814.00" arrivalLane="386687235_1" arrivalPos="80.84" arrivalSpeed="12.77" duration="192.00" routeLength="2257.41" waitingTime="11.00" waitingCount="2" stopTime="0.00" timeLoss="38.91" rerouteNo="1" devices="tripinfo_carIn462:1 routing_carIn462:1 emissions_carIn462:1" vType="default_016" speedFactor="0.98" vaporized="">
        <emissions CO_abs="6743.931525" CO2_abs="506148.421144" HC_abs="42.648256" PMx_abs="8.846016" NOx_abs="202.950216" fuel_abs="217.571159" electricity_abs="0"/>
    </tripinfo>
    <tripinfo id="h16072c2:3" depart="57663.00" departLane="315358254#0_1" departPos="5.10" departSpeed="0.00" departDelay="2.50" arrival="57815.00" arrivalLane="386687235_2" arrivalPos="80.84" arrivalSpeed="15.98" duration="152.00" routeLength="1611.92" waitingTime="11.00" waitingCount="3" stopTime="0.00" timeLoss="49.98" rerouteNo="1" devices="tripinfo_h16072c2:3 routing_h16072c2:3 emissions_h16072c2:3" vType="default_016" speedFactor="1.16" vaporized="">
        <emissions CO_abs="6401.513023" CO2_abs="426709.680047" HC_abs="39.025575" PMx_abs="7.664288" NOx_abs="173.798747" fuel_abs="183.424024" electricity_abs="0"/>
    </tripinfo>
    <tripinfo id="carIn31257:1" depart="57630.00" departLane="-306240162#1_0" departPos="5.10" departSpeed="0.00" departDelay="1.60" arrival="57816.00" arrivalLane="386687235_1" arrivalPos="80.84" arrivalSpeed="14.16" duration="186.00" routeLength="2257.41" waitingTime="12.00" waitingCount="2" stopTime="0.00" timeLoss="47.29" rerouteNo="1" devices="tripinfo_carIn31257:1 routing_carIn31257:1 emissions_carIn31257:1" vType="default_016" speedFactor="1.07" vaporized="">
        <emissions CO_abs="7650.439468" CO2_abs="531250.644062" HC_abs="47.448309" PMx_abs="9.905576" NOx_abs="217.481234" fuel_abs="228.361002" electricity_abs="0"/>
    </tripinfo>
    <tripinfo id="carIn50326:1" depart="57651.00" departLane="128361102#0_1" departPos="5.10" departSpeed="0.00" departDelay="0.30" arrival="57816.00" arrivalLane="18809673#0_1" arrivalPos="473.56" arrivalSpeed="12.34" duration="165.00" routeLength="1591.07" waitingTime="3.00" waitingCount="1" stopTime="0.00" timeLoss="22.80" rerouteNo="1" devices="tripinfo_carIn50326:1 routing_carIn50326:1 emissions_carIn50326:1" vType="default_016" speedFactor="0.91" vaporized="">
        <emissions CO_abs="5260.666745" CO2_abs="337620.094791" HC_abs="31.760220" PMx_abs="5.286516" NOx_abs="133.711739" fuel_abs="145.129526" electricity_abs="0"/>
    </tripinfo>
    <tripinfo id="h17549c1:1" depart="57680.00" departLane="-447569998#1_1" departPos="5.10" departSpeed="0.00" departDelay="0.00" arrival="57816.00" arrivalLane="-315358254#1_1" arrivalPos="137.16" arrivalSpeed="15.93" duration="136.00" routeLength="1746.60" waitingTime="0.00" waitingCount="0" stopTime="0.00" timeLoss="20.80" rerouteNo="1" devices="tripinfo_h17549c1:1 routing_h17549c1:1 emissions_h17549c1:1" vType="default_016" speedFactor="1.19" vaporized="">
        <emissions CO_abs="5445.829241" CO2_abs="409194.395802" HC_abs="34.347904" PMx_abs="7.246796" NOx_abs="165.010286" fuel_abs="175.894640" electricity_abs="0"/>
    </tripinfo>
    <tripinfo id="carIn12152:1" depart="57647.00" departLane="24599188#0.94_1" departPos="5.10" departSpeed="0.00" departDelay="0.50" arrival="57822.00" arrivalLane="-315358254#1_1" arrivalPos="137.16" arrivalSpeed="12.67" duration="175.00" routeLength="2034.31" waitingTime="0.00" waitingCount="0" stopTime="0.00" timeLoss="15.89" rerouteNo="1" devices="tripinfo_carIn12152:1 routing_carIn12152:1 emissions_carIn12152:1" vType="default_016" speedFactor="0.99" vaporized="">
        <emissions CO_abs="4804.167493" CO2_abs="388956.304707" HC_abs="30.882005" PMx_abs="6.034005" NOx_abs="152.055262" fuel_abs="167.196105" electricity_abs="0"/>
    </tripinfo>
    <tripinfo id="carIn81046:1" depart="57611.00" departLane="124812856#0_1" departPos="5.10" departSpeed="0.00" departDelay="2.50" arrival="57829.00" arrivalLane="-128361102#1_1" arrivalPos="274.68" arrivalSpeed="11.32" duration="218.00" routeLength="2250.49" waitingTime="0.00" waitingCount="0" stopTime="0.00" timeLoss="22.13" rerouteNo="1" devices="tripinfo_carIn81046:1 routing_carIn81046:1 emissions_carIn81046:1" vType="default_016" speedFactor="0.84" vaporized="">
        <emissions CO_abs="6104.477684" CO2_abs="442510.178407" HC_abs="37.993630" PMx_abs="6.615214" NOx_abs="173.067162" fuel_abs="190.217444" electricity_abs="0"/>
    </tripinfo>
    <tripinfo id="carIn77438:1" depart="57614.00" departLane="124812856#0_1" departPos="5.10" departSpeed="0.00" departDelay="1.10" arrival="57831.00" arrivalLane="-128361102#1_1" arrivalPos="274.68" arrivalSpeed="13.93" duration="217.00" routeLength="2250.49" waitingTime="0.00" waitingCount="0" stopTime="0.00" timeLoss="54.86" rerouteNo="1" devices="tripinfo_carIn77438:1 routing_carIn77438:1 emissions_carIn77438:1" vType="default_016" speedFactor="1.02" vaporized="">
        <emissions CO_abs="7413.876620" CO2_abs="522541.758084" HC_abs="45.904191" PMx_abs="8.402573" NOx_abs="208.431772" fuel_abs="224.619070" electricity_abs="0"/>
    </tripinfo>
    <tripinfo id="carIn46110:1" depart="57684.00" departLane="315358244_1" departPos="5.10" departSpeed="0.00" departDelay="1.20" arrival="57831.00" arrivalLane="32978638#0_1" arrivalPos="49.29" arrivalSpeed="13.31" duration="147.00" routeLength="1764.04" waitingTime="5.00" waitingCount="1" stopTime="0.00" timeLoss="19.35" rerouteNo="1" devices="tripinfo_carIn46110:1 routing_carIn46110:1 emissions_carIn46110:1" vType="default_016" speedFactor="1.01" vaporized="">
        <emissions CO_abs="3627.170060" CO2_abs="328064.051895" HC_abs="24.071326" PMx_abs="5.046714" NOx_abs="127.216571" fuel_abs="141.020833" electricity_abs="0"/>
    </tripinfo>