<?xml version="1.0" encoding="UTF-8"?>

<!-- generated on 2021-10-26 11:57:29 by Eclipse SUMO sumo Version 1.10.0
<configuration xmlns:xsi="http://www.w3.org/2001/XMLSchema-instance" xsi:noNamespaceSchemaLocation="http://sumo.dlr.de/xsd/sumoConfiguration.xsd">

    <input>
        <net-file value="/Users/behradkoohy/sumo-scratchpad/RESCO/environments/ingolstadt21/ingolstadt21.net.xml"/>
        <route-files value="/Users/behradkoohy/sumo-scratchpad/RESCO/environments/ingolstadt21/ingolstadt21.rou.xml"/>
    </input>

    <output>
        <tripinfo-output value="/Users/behradkoohy/sumo-scratchpad/RESCO/logs/MAXWAVE-tr0-ingolstadt21-21-wave-wait/tripinfo_53.xml"/>
        <tripinfo-output.write-unfinished value="true"/>
    </output>

    <time>
        <begin value="57600"/>
        <end value="61200"/>
    </time>

    <processing>
        <time-to-teleport value="-1"/>
    </processing>

    <report>
        <no-warnings value="true"/>
        <no-step-log value="true"/>
    </report>

    <emissions>
        <device.emissions.probability value="1"/>
    </emissions>

    <traci_server>
        <remote-port value="57778"/>
    </traci_server>

    <random_number>
        <random value="true"/>
    </random_number>

</configuration>
-->

<tripinfos xmlns:xsi="http://www.w3.org/2001/XMLSchema-instance" xsi:noNamespaceSchemaLocation="http://sumo.dlr.de/xsd/tripinfo_file.xsd">
    <tripinfo id="h15454c2:3" depart="57612.00" departLane="24608844_1" departPos="5.10" departSpeed="0.00" departDelay="0.50" arrival="57652.00" arrivalLane="32978638#0_1" arrivalPos="49.29" arrivalSpeed="13.51" duration="40.00" routeLength="354.79" waitingTime="0.00" waitingCount="0" stopTime="0.00" timeLoss="5.77" rerouteNo="1" devices="tripinfo_h15454c2:3 routing_h15454c2:3 emissions_h15454c2:3" vType="default_016" speedFactor="1.01" vaporized="">
        <emissions CO_abs="1949.427702" CO2_abs="109450.452024" HC_abs="11.435951" PMx_abs="1.919212" NOx_abs="44.901231" fuel_abs="47.048292" electricity_abs="0"/>
    </tripinfo>
    <tripinfo id="carIn60260:1" depart="57606.00" departLane="315358254#0_1" departPos="5.10" departSpeed="0.00" departDelay="0.90" arrival="57656.00" arrivalLane="399835085#1_1" arrivalPos="212.23" arrivalSpeed="7.75" duration="50.00" routeLength="430.98" waitingTime="0.00" waitingCount="0" stopTime="0.00" timeLoss="7.29" rerouteNo="1" devices="tripinfo_carIn60260:1 routing_carIn60260:1 emissions_carIn60260:1" vType="default_016" speedFactor="1.08" vaporized="">
        <emissions CO_abs="2072.786610" CO2_abs="114475.215750" HC_abs="12.087125" PMx_abs="1.872717" NOx_abs="46.160815" fuel_abs="49.208461" electricity_abs="0"/>
    </tripinfo>
    <tripinfo id="h12244c1:3" depart="57612.00" departLane="315358244_1" departPos="5.10" departSpeed="0.00" departDelay="0.40" arrival="57692.00" arrivalLane="386687235_1" arrivalPos="80.84" arrivalSpeed="15.86" duration="80.00" routeLength="1186.14" waitingTime="0.00" waitingCount="0" stopTime="0.00" timeLoss="9.10" rerouteNo="1" devices="tripinfo_h12244c1:3 routing_h12244c1:3 emissions_h12244c1:3" vType="default_016" speedFactor="1.21" vaporized="">
        <emissions CO_abs="2700.981940" CO2_abs="254452.493060" HC_abs="17.941464" PMx_abs="4.246676" NOx_abs="99.306223" fuel_abs="109.377839" electricity_abs="0"/>
    </tripinfo>
    <tripinfo id="carIn53971:1" depart="57640.00" departLane="272042143_1" departPos="5.10" departSpeed="0.00" departDelay="0.80" arrival="57700.00" arrivalLane="24634414#1_1" arrivalPos="162.19" arrivalSpeed="6.46" duration="60.00" routeLength="493.04" waitingTime="0.00" waitingCount="0" stopTime="0.00" timeLoss="8.15" rerouteNo="1" devices="tripinfo_carIn53971:1 routing_carIn53971:1 emissions_carIn53971:1" vType="default_016" speedFactor="0.88" vaporized="">
        <emissions CO_abs="2487.410442" CO2_abs="129392.104503" HC_abs="14.334263" PMx_abs="2.220608" NOx_abs="52.953664" fuel_abs="55.620607" electricity_abs="0"/>
    </tripinfo>
    <tripinfo id="S5R_frequency1.2" depart="57616.00" departLane="315358250#0_1" departPos="12.10" departSpeed="0.00" departDelay="4.40" arrival="57709.00" arrivalLane="386687235_1" arrivalPos="80.84" arrivalSpeed="13.34" duration="93.00" routeLength="1115.62" waitingTime="0.00" waitingCount="0" stopTime="0.00" timeLoss="11.66" rerouteNo="1" devices="tripinfo_S5R_frequency1.2 routing_S5R_frequency1.2 emissions_S5R_frequency1.2" vType="bus" speedFactor="1.00" vaporized="">
        <emissions CO_abs="1808.552088" CO2_abs="1152477.333896" HC_abs="380.627201" PMx_abs="194.344885" NOx_abs="8889.481316" fuel_abs="491.525737" electricity_abs="0"/>
    </tripinfo>
    <tripinfo id="h7800c1:5" depart="57696.00" departLane="-447569998#1_1" departPos="5.10" departSpeed="0.00" departDelay="0.00" arrival="57721.00" arrivalLane="-447569998#1_1" arrivalPos="180.76" arrivalSpeed="7.72" duration="25.00" routeLength="175.66" waitingTime="0.00" waitingCount="0" stopTime="0.00" timeLoss="3.27" rerouteNo="1" devices="tripinfo_h7800c1:5 routing_h7800c1:5 emissions_h7800c1:5" vType="default_016" speedFactor="0.99" vaporized="">
        <emissions CO_abs="1112.854132" CO2_abs="48141.969475" HC_abs="6.170926" PMx_abs="0.786679" NOx_abs="19.592383" fuel_abs="20.694556" electricity_abs="0"/>
    </tripinfo>
    <tripinfo id="carIn80064:1" depart="57603.00" departLane="128361109#1_1" departPos="5.10" departSpeed="0.00" departDelay="0.40" arrival="57730.00" arrivalLane="-315358254#1_1" arrivalPos="137.16" arrivalSpeed="11.98" duration="127.00" routeLength="1587.97" waitingTime="7.00" waitingCount="1" stopTime="0.00" timeLoss="31.33" rerouteNo="1" devices="tripinfo_carIn80064:1 routing_carIn80064:1 emissions_carIn80064:1" vType="default_016" speedFactor="0.94" vaporized="">
        <emissions CO_abs="6774.581831" CO2_abs="449464.093618" HC_abs="41.555188" PMx_abs="8.706793" NOx_abs="185.774400" fuel_abs="193.204395" electricity_abs="0"/>
    </tripinfo>
    <tripinfo id="h3688c1:1" depart="57625.00" departLane="201201950#1_1" departPos="5.10" departSpeed="0.00" departDelay="0.00" arrival="57736.00" arrivalLane="32978638#0_1" arrivalPos="49.29" arrivalSpeed="11.18" duration="111.00" routeLength="1089.75" waitingTime="0.00" waitingCount="0" stopTime="0.00" timeLoss="13.90" rerouteNo="1" devices="tripinfo_h3688c1:1 routing_h3688c1:1 emissions_h3688c1:1" vType="default_016" speedFactor="0.83" vaporized="">
        <emissions CO_abs="3704.102536" CO2_abs="239237.472956" HC_abs="22.399423" PMx_abs="3.765593" NOx_abs="95.064754" fuel_abs="102.838658" electricity_abs="0"/>
    </tripinfo>
    <tripinfo id="h9563c2:5" depart="57631.00" departLane="315358244_1" departPos="5.10" departSpeed="0.00" departDelay="0.70" arrival="57736.00" arrivalLane="386687235_1" arrivalPos="80.84" arrivalSpeed="11.31" duration="105.00" routeLength="1186.14" waitingTime="0.00" waitingCount="0" stopTime="0.00" timeLoss="8.83" rerouteNo="1" devices="tripinfo_h9563c2:5 routing_h9563c2:5 emissions_h9563c2:5" vType="default_016" speedFactor="0.90" vaporized="">
        <emissions CO_abs="2630.527356" CO2_abs="214141.052870" HC_abs="16.941179" PMx_abs="3.257813" NOx_abs="83.603916" fuel_abs="92.050372" electricity_abs="0"/>
    </tripinfo>
    <tripinfo id="carIn22761:1" depart="57616.00" departLane="-306240162#1_0" departPos="5.10" departSpeed="0.00" departDelay="2.10" arrival="57741.00" arrivalLane="399835085#1_1" arrivalPos="212.23" arrivalSpeed="8.63" duration="125.00" routeLength="1093.26" waitingTime="35.00" waitingCount="1" stopTime="0.00" timeLoss="53.54" rerouteNo="1" devices="tripinfo_carIn22761:1 routing_carIn22761:1 emissions_carIn22761:1" vType="default_016" speedFactor="1.09" vaporized="">
        <emissions CO_abs="9903.518275" CO2_abs="383280.803256" HC_abs="54.160191" PMx_abs="7.714915" NOx_abs="160.920942" fuel_abs="164.758201" electricity_abs="0"/>
    </tripinfo>
    <tripinfo id="h3568c1:3" depart="57656.00" departLane="266565295#5_1" departPos="5.10" departSpeed="0.00" departDelay="0.80" arrival="57744.00" arrivalLane="-24634415_1" arrivalPos="62.03" arrivalSpeed="11.29" duration="88.00" routeLength="807.40" waitingTime="0.00" waitingCount="0" stopTime="0.00" timeLoss="12.82" rerouteNo="1" devices="tripinfo_h3568c1:3 routing_h3568c1:3 emissions_h3568c1:3" vType="default_016" speedFactor="0.87" vaporized="">
        <emissions CO_abs="3449.467642" CO2_abs="200255.982608" HC_abs="20.346052" PMx_abs="3.258690" NOx_abs="80.415012" fuel_abs="86.082188" electricity_abs="0"/>
    </tripinfo>
    <tripinfo id="h317c2:1" depart="57707.00" departLane="-32978638#0_1" departPos="5.10" departSpeed="0.00" departDelay="0.10" arrival="57746.00" arrivalLane="-266565295#5_1" arrivalPos="172.76" arrivalSpeed="12.27" duration="39.00" routeLength="370.53" waitingTime="1.00" waitingCount="1" stopTime="0.00" timeLoss="9.81" rerouteNo="1" devices="tripinfo_h317c2:1 routing_h317c2:1 emissions_h317c2:1" vType="default_016" speedFactor="0.93" vaporized="">
        <emissions CO_abs="1888.754899" CO2_abs="106731.380323" HC_abs="11.101433" PMx_abs="1.887528" NOx_abs="43.765071" fuel_abs="45.879452" electricity_abs="0"/>
    </tripinfo>
    <tripinfo id="h645c1:1" depart="57622.00" departLane="266565295#5_1" departPos="5.10" departSpeed="0.00" departDelay="0.40" arrival="57754.00" arrivalLane="-315358244_1" arrivalPos="33.95" arrivalSpeed="15.37" duration="132.00" routeLength="1910.83" waitingTime="0.00" waitingCount="0" stopTime="0.00" timeLoss="10.83" rerouteNo="1" devices="tripinfo_h645c1:1 routing_h645c1:1 emissions_h645c1:1" vType="default_016" speedFactor="1.14" vaporized="">
        <emissions CO_abs="2971.911441" CO2_abs="323125.926655" HC_abs="20.653493" PMx_abs="4.989078" NOx_abs="123.352143" fuel_abs="138.897745" electricity_abs="0"/>
    </tripinfo>
    <tripinfo id="h4538c1:1" depart="57701.00" departLane="-10427692#1_1" departPos="5.10" departSpeed="0.00" departDelay="0.00" arrival="57754.00" arrivalLane="-128361102#1_1" arrivalPos="274.68" arrivalSpeed="15.23" duration="53.00" routeLength="440.74" waitingTime="12.00" waitingCount="1" stopTime="0.00" timeLoss="23.93" rerouteNo="1" devices="tripinfo_h4538c1:1 routing_h4538c1:1 emissions_h4538c1:1" vType="default_016" speedFactor="1.11" vaporized="">
        <emissions CO_abs="2973.569643" CO2_abs="138444.618000" HC_abs="16.771644" PMx_abs="2.581623" NOx_abs="57.107784" fuel_abs="59.511968" electricity_abs="0"/>
    </tripinfo>
    <tripinfo id="h5979c1:5" depart="57669.00" departLane="399835085#1_1" departPos="5.10" departSpeed="0.00" departDelay="0.00" arrival="57758.00" arrivalLane="-315358254#1_1" arrivalPos="137.16" arrivalSpeed="14.21" duration="89.00" routeLength="659.33" waitingTime="5.00" waitingCount="1" stopTime="0.00" timeLoss="18.50" rerouteNo="1" devices="tripinfo_h5979c1:5 routing_h5979c1:5 emissions_h5979c1:5" vType="default_016" speedFactor="1.04" vaporized="">
        <emissions CO_abs="3704.015724" CO2_abs="186012.434907" HC_abs="21.103426" PMx_abs="2.993478" NOx_abs="74.836107" fuel_abs="79.959879" electricity_abs="0"/>
    </tripinfo>
    <tripinfo id="h7181c1:1" depart="57660.00" departLane="315358254#0_1" departPos="5.10" departSpeed="0.00" departDelay="0.10" arrival="57760.00" arrivalLane="306240162#0_0" arrivalPos="220.43" arrivalSpeed="17.43" duration="100.00" routeLength="932.35" waitingTime="40.00" waitingCount="1" stopTime="0.00" timeLoss="53.54" rerouteNo="1" devices="tripinfo_h7181c1:1 routing_h7181c1:1 emissions_h7181c1:1" vType="default_016" speedFactor="1.12" vaporized="">
        <emissions CO_abs="9859.906101" CO2_abs="358012.537446" HC_abs="53.454891" PMx_abs="7.671026" NOx_abs="152.086896" fuel_abs="153.896250" electricity_abs="0"/>
    </tripinfo>
    <tripinfo id="carIn30817:1" depart="57681.00" departLane="315358244_1" departPos="5.10" departSpeed="0.00" departDelay="0.20" arrival="57762.00" arrivalLane="447569997#1_1" arrivalPos="180.93" arrivalSpeed="6.52" duration="81.00" routeLength="718.04" waitingTime="0.00" waitingCount="0" stopTime="0.00" timeLoss="8.36" rerouteNo="1" devices="tripinfo_carIn30817:1 routing_carIn30817:1 emissions_carIn30817:1" vType="default_016" speedFactor="0.85" vaporized="">
        <emissions CO_abs="2815.850473" CO2_abs="160471.597005" HC_abs="16.490941" PMx_abs="2.372399" NOx_abs="62.939358" fuel_abs="68.980847" electricity_abs="0"/>
    </tripinfo>
    <tripinfo id="h3326c1:2" depart="57656.00" departLane="22716069#0_1" departPos="5.10" departSpeed="0.00" departDelay="0.00" arrival="57767.00" arrivalLane="24634517#13_1" arrivalPos="111.62" arrivalSpeed="13.01" duration="111.00" routeLength="1312.81" waitingTime="0.00" waitingCount="0" stopTime="0.00" timeLoss="15.52" rerouteNo="1" devices="tripinfo_h3326c1:2 routing_h3326c1:2 emissions_h3326c1:2" vType="default_016" speedFactor="1.02" vaporized="">
        <emissions CO_abs="4024.035837" CO2_abs="307968.467357" HC_abs="25.540301" PMx_abs="5.263772" NOx_abs="123.826066" fuel_abs="132.382225" electricity_abs="0"/>
    </tripinfo>
    <tripinfo id="carIn27009:1" depart="57673.00" departLane="-447569998#1_1" departPos="5.10" departSpeed="0.00" departDelay="0.50" arrival="57769.00" arrivalLane="-26677539_1" arrivalPos="152.75" arrivalSpeed="7.76" duration="96.00" routeLength="699.63" waitingTime="4.00" waitingCount="1" stopTime="0.00" timeLoss="17.83" rerouteNo="1" devices="tripinfo_carIn27009:1 routing_carIn27009:1 emissions_carIn27009:1" vType="default_015" speedFactor="1.08" vaporized="">
        <emissions CO_abs="3489.242919" CO2_abs="170497.787987" HC_abs="19.805998" PMx_abs="2.751031" NOx_abs="69.003003" fuel_abs="73.290745" electricity_abs="0"/>
    </tripinfo>
    <tripinfo id="h330c1:1" depart="57736.00" departLane="-32978638#0_1" departPos="5.10" departSpeed="0.00" departDelay="0.20" arrival="57779.00" arrivalLane="-266565295#5_1" arrivalPos="172.76" arrivalSpeed="10.44" duration="43.00" routeLength="370.53" waitingTime="2.00" waitingCount="1" stopTime="0.00" timeLoss="9.83" rerouteNo="1" devices="tripinfo_h330c1:1 routing_h330c1:1 emissions_h330c1:1" vType="default_016" speedFactor="0.82" vaporized="">
        <emissions CO_abs="1959.982415" CO2_abs="110662.529788" HC_abs="11.486008" PMx_abs="1.801458" NOx_abs="44.491220" fuel_abs="47.569519" electricity_abs="0"/>
    </tripinfo>
    <tripinfo id="h3154c1:1" depart="57658.00" departLane="24634507_1" departPos="5.10" departSpeed="0.00" departDelay="0.00" arrival="57787.00" arrivalLane="-266565295#5_1" arrivalPos="172.76" arrivalSpeed="12.05" duration="129.00" routeLength="1206.22" waitingTime="11.00" waitingCount="2" stopTime="0.00" timeLoss="35.93" rerouteNo="1" devices="tripinfo_h3154c1:1 routing_h3154c1:1 emissions_h3154c1:1" vType="default_016" speedFactor="0.96" vaporized="">
        <emissions CO_abs="5621.268467" CO2_abs="341288.522687" HC_abs="33.602222" PMx_abs="6.017507" NOx_abs="139.455282" fuel_abs="146.705674" electricity_abs="0"/>
    </tripinfo>
    <tripinfo id="carIn118591:1" depart="57689.00" departLane="315358244_1" departPos="5.10" departSpeed="0.00" departDelay="0.20" arrival="57790.00" arrivalLane="386687235_1" arrivalPos="80.84" arrivalSpeed="13.40" duration="101.00" routeLength="1186.14" waitingTime="0.00" waitingCount="0" stopTime="0.00" timeLoss="11.83" rerouteNo="1" devices="tripinfo_carIn118591:1 routing_carIn118591:1 emissions_carIn118591:1" vType="default_016" speedFactor="0.98" vaporized="">
        <emissions CO_abs="2857.058229" CO2_abs="223620.564055" HC_abs="18.221109" PMx_abs="3.565324" NOx_abs="88.104040" fuel_abs="96.125092" electricity_abs="0"/>
    </tripinfo>
    <tripinfo id="carIn12365:1" depart="57713.00" departLane="315358244_1" departPos="5.10" departSpeed="0.00" departDelay="0.50" arrival="57790.00" arrivalLane="447569997#1_1" arrivalPos="180.93" arrivalSpeed="8.40" duration="77.00" routeLength="718.04" waitingTime="6.00" waitingCount="1" stopTime="0.00" timeLoss="18.10" rerouteNo="1" devices="tripinfo_carIn12365:1 routing_carIn12365:1 emissions_carIn12365:1" vType="default_016" speedFactor="1.04" vaporized="">
        <emissions CO_abs="2699.683602" CO2_abs="165215.281292" HC_abs="16.119082" PMx_abs="2.671679" NOx_abs="65.772733" fuel_abs="71.019513" electricity_abs="0"/>
    </tripinfo>
    <tripinfo id="carIn82220:1" depart="57619.00" departLane="-306240162#1_0" departPos="5.10" departSpeed="0.00" departDelay="3.50" arrival="57793.00" arrivalLane="386687235_2" arrivalPos="80.84" arrivalSpeed="14.15" duration="174.00" routeLength="2257.41" waitingTime="0.00" waitingCount="0" stopTime="0.00" timeLoss="36.07" rerouteNo="1" devices="tripinfo_carIn82220:1 routing_carIn82220:1 emissions_carIn82220:1" vType="default_016" speedFactor="1.08" vaporized="">
        <emissions CO_abs="7107.980408" CO2_abs="512505.635109" HC_abs="44.431651" PMx_abs="9.439717" NOx_abs="208.697549" fuel_abs="220.303321" electricity_abs="0"/>
    </tripinfo>
    <tripinfo id="carIn48184:1" depart="57613.00" departLane="-306240162#1_0" departPos="5.10" departSpeed="0.00" departDelay="0.70" arrival="57794.00" arrivalLane="386687235_1" arrivalPos="80.84" arrivalSpeed="12.75" duration="181.00" routeLength="2257.41" waitingTime="2.00" waitingCount="1" stopTime="0.00" timeLoss="28.53" rerouteNo="1" devices="tripinfo_carIn48184:1 routing_carIn48184:1 emissions_carIn48184:1" vType="default_016" speedFactor="0.98" vaporized="">
        <emissions CO_abs="6810.249510" CO2_abs="510775.073336" HC_abs="43.046048" PMx_abs="8.910297" NOx_abs="205.045661" fuel_abs="219.559947" electricity_abs="0"/>
    </tripinfo>
    <tripinfo id="carIn107282:1" depart="57749.00" departLane="-447569998#1_1" departPos="5.10" departSpeed="0.00" departDelay="0.00" arrival="57794.00" arrivalLane="315358242#0_1" arrivalPos="165.37" arrivalSpeed="13.63" duration="45.00" routeLength="448.50" waitingTime="0.00" waitingCount="0" stopTime="0.00" timeLoss="4.96" rerouteNo="1" devices="tripinfo_carIn107282:1 routing_carIn107282:1 emissions_carIn107282:1" vType="default_016" speedFactor="1.04" vaporized="">
        <emissions CO_abs="1767.746406" CO2_abs="108652.619012" HC_abs="10.562579" PMx_abs="1.714256" NOx_abs="43.056047" fuel_abs="46.705514" electricity_abs="0"/>
    </tripinfo>
    <tripinfo id="carIn28951:1" depart="57606.00" departLane="10425609#0_1" departPos="5.10" departSpeed="0.00" departDelay="0.20" arrival="57803.00" arrivalLane="-128361102#1_1" arrivalPos="274.68" arrivalSpeed="11.73" duration="197.00" routeLength="2113.04" waitingTime="0.00" waitingCount="0" stopTime="0.00" timeLoss="19.70" rerouteNo="1" devices="tripinfo_carIn28951:1 routing_carIn28951:1 emissions_carIn28951:1" vType="default_016" speedFactor="0.88" vaporized="">
        <emissions CO_abs="5554.875166" CO2_abs="422071.156675" HC_abs="35.061472" PMx_abs="6.452021" NOx_abs="165.610287" fuel_abs="181.431119" electricity_abs="0"/>
    </tripinfo>
    <tripinfo id="carIn107084:1" depart="57601.00" departLane="124812856#0_1" departPos="5.10" departSpeed="0.00" departDelay="0.70" arrival="57805.00" arrivalLane="-128361102#1_1" arrivalPos="274.68" arrivalSpeed="12.47" duration="204.00" routeLength="2250.49" waitingTime="2.00" waitingCount="1" stopTime="0.00" timeLoss="32.53" rerouteNo="1" devices="tripinfo_carIn107084:1 routing_carIn107084:1 emissions_carIn107084:1" vType="default_016" speedFactor="0.96" vaporized="">
        <emissions CO_abs="6942.262577" CO2_abs="521339.207469" HC_abs="43.802190" PMx_abs="8.607706" NOx_abs="208.328292" fuel_abs="224.101523" electricity_abs="0"/>
    </tripinfo>
    <tripinfo id="carIn31257:1" depart="57630.00" departLane="-306240162#1_0" departPos="5.10" departSpeed="0.00" departDelay="1.60" arrival="57812.00" arrivalLane="386687235_2" arrivalPos="80.84" arrivalSpeed="14.19" duration="182.00" routeLength="2257.41" waitingTime="3.00" waitingCount="1" stopTime="0.00" timeLoss="36.95" rerouteNo="1" devices="tripinfo_carIn31257:1 routing_carIn31257:1 emissions_carIn31257:1" vType="default_016" speedFactor="1.03" vaporized="">
        <emissions CO_abs="6679.975602" CO2_abs="527591.333799" HC_abs="42.773650" PMx_abs="9.057211" NOx_abs="210.155301" fuel_abs="226.788505" electricity_abs="0"/>
    </tripinfo>
    <tripinfo id="carIn462:1" depart="57622.00" departLane="-306240162#1_0" departPos="5.10" departSpeed="0.00" departDelay="4.80" arrival="57813.00" arrivalLane="386687235_1" arrivalPos="80.84" arrivalSpeed="14.17" duration="191.00" routeLength="2257.41" waitingTime="16.00" waitingCount="2" stopTime="0.00" timeLoss="52.57" rerouteNo="1" devices="tripinfo_carIn462:1 routing_carIn462:1 emissions_carIn462:1" vType="default_016" speedFactor="1.07" vaporized="">
        <emissions CO_abs="8574.468334" CO2_abs="559052.790646" HC_abs="52.221504" PMx_abs="10.227073" NOx_abs="226.978651" fuel_abs="240.312710" electricity_abs="0"/>
    </tripinfo>
    <tripinfo id="carIn82278:1" depart="57702.00" departLane="-306240162#1_0" departPos="5.10" departSpeed="0.00" departDelay="0.70" arrival="57813.00" arrivalLane="399835085#1_1" arrivalPos="212.23" arrivalSpeed="8.14" duration="111.00" routeLength="1093.26" waitingTime="17.00" waitingCount="1" stopTime="0.00" timeLoss="33.96" rerouteNo="1" devices="tripinfo_carIn82278:1 routing_carIn82278:1 emissions_carIn82278:1" vType="default_016" speedFactor="1.01" vaporized="">
        <emissions CO_abs="6572.642792" CO2_abs="308390.590594" HC_abs="37.191262" PMx_abs="5.933238" NOx_abs="128.083362" fuel_abs="132.564859" electricity_abs="0"/>
    </tripinfo>
    <tripinfo id="carIn81860:1" depart="57712.00" departLane="128361102#0_1" departPos="5.10" departSpeed="0.00" departDelay="0.60" arrival="57813.00" arrivalLane="-24634517#17_1" arrivalPos="6.43" arrivalSpeed="8.49" duration="101.00" routeLength="1229.64" waitingTime="9.00" waitingCount="1" stopTime="0.00" timeLoss="25.09" rerouteNo="1" devices="tripinfo_carIn81860:1 routing_carIn81860:1 emissions_carIn81860:1" vType="default_016" speedFactor="1.19" vaporized="">
        <emissions CO_abs="3825.941030" CO2_abs="272356.309569" HC_abs="23.697718" PMx_abs="4.777303" NOx_abs="108.957107" fuel_abs="117.074265" electricity_abs="0"/>
    </tripinfo>
    <tripinfo id="carIn81046:1" depart="57611.00" departLane="124812856#0_1" departPos="5.10" departSpeed="0.00" departDelay="2.50" arrival="57814.00" arrivalLane="-128361102#1_1" arrivalPos="274.68" arrivalSpeed="12.03" duration="203.00" routeLength="2250.49" waitingTime="0.00" waitingCount="0" stopTime="0.00" timeLoss="22.97" rerouteNo="1" devices="tripinfo_carIn81046:1 routing_carIn81046:1 emissions_carIn81046:1" vType="default_016" speedFactor="0.91" vaporized="">
        <emissions CO_abs="5724.611563" CO2_abs="447861.133338" HC_abs="36.458781" PMx_abs="6.932760" NOx_abs="175.910163" fuel_abs="192.516937" electricity_abs="0"/>
    </tripinfo>
    <tripinfo id="carIn101568:1" depart="57638.00" departLane="-306240162#1_0" departPos="5.10" departSpeed="0.00" departDelay="0.50" arrival="57814.00" arrivalLane="386687235_2" arrivalPos="80.84" arrivalSpeed="14.26" duration="176.00" routeLength="2257.41" waitingTime="2.00" waitingCount="2" stopTime="0.00" timeLoss="39.28" rerouteNo="1" devices="tripinfo_carIn101568:1 routing_carIn101568:1 emissions_carIn101568:1" vType="default_016" speedFactor="1.09" vaporized="">
        <emissions CO_abs="7361.690894" CO2_abs="532951.447263" HC_abs="46.066161" PMx_abs="9.754900" NOx_abs="215.658860" fuel_abs="229.092232" electricity_abs="0"/>
    </tripinfo>
    <tripinfo id="carIn12858:1" depart="57661.00" departLane="128361109#1_1" departPos="5.10" departSpeed="0.00" departDelay="0.90" arrival="57815.00" arrivalLane="399835085#1_1" arrivalPos="212.23" arrivalSpeed="7.94" duration="154.00" routeLength="1738.12" waitingTime="7.00" waitingCount="2" stopTime="0.00" timeLoss="41.77" rerouteNo="1" devices="tripinfo_carIn12858:1 routing_carIn12858:1 emissions_carIn12858:1" vType="default_016" speedFactor="1.02" vaporized="">
        <emissions CO_abs="8054.957878" CO2_abs="490872.300839" HC_abs="48.396747" PMx_abs="9.449799" NOx_abs="203.041871" fuel_abs="211.004529" electricity_abs="0"/>
    </tripinfo>
    <tripinfo id="carIn116184:1" depart="57627.00" departLane="-306240162#1_0" departPos="5.10" departSpeed="0.00" departDelay="0.10" arrival="57816.00" arrivalLane="386687235_1" arrivalPos="80.84" arrivalSpeed="12.91" duration="189.00" routeLength="2257.41" waitingTime="4.00" waitingCount="1" stopTime="0.00" timeLoss="30.19" rerouteNo="1" devices="tripinfo_carIn116184:1 routing_carIn116184:1 emissions_carIn116184:1" vType="default_016" speedFactor="0.94" vaporized="">
        <emissions CO_abs="6058.600245" CO2_abs="485965.331511" HC_abs="38.917357" PMx_abs="8.035337" NOx_abs="192.019650" fuel_abs="208.895648" electricity_abs="0"/>
    </tripinfo>
    <tripinfo id="h11737c1:1" depart="57665.00" departLane="272042143_1" departPos="5.10" departSpeed="0.00" departDelay="1.50" arrival="57816.00" arrivalLane="-315358254#1_1" arrivalPos="137.16" arrivalSpeed="14.25" duration="151.00" routeLength="1596.88" waitingTime="27.00" waitingCount="1" stopTime="0.00" timeLoss="43.94" rerouteNo="1" devices="tripinfo_h11737c1:1 routing_h11737c1:1 emissions_h11737c1:1" vType="default_016" speedFactor="1.09" vaporized="">
        <emissions CO_abs="7788.562921" CO2_abs="400127.996010" HC_abs="44.712718" PMx_abs="7.098928" NOx_abs="161.615537" fuel_abs="171.999462" electricity_abs="0"/>
    </tripinfo>
    <tripinfo id="h5216c1:1" depart="57664.00" departLane="224892339#0_1" departPos="5.10" departSpeed="0.00" departDelay="0.00" arrival="57817.00" arrivalLane="386687235_1" arrivalPos="80.84" arrivalSpeed="13.76" duration="153.00" routeLength="1823.78" waitingTime="2.00" waitingCount="1" stopTime="0.00" timeLoss="34.74" rerouteNo="1" devices="tripinfo_h5216c1:1 routing_h5216c1:1 emissions_h5216c1:1" vType="default_016" speedFactor="1.08" vaporized="">
        <emissions CO_abs="5869.390896" CO2_abs="440920.875919" HC_abs="36.990655" PMx_abs="7.558547" NOx_abs="176.008085" fuel_abs="189.532862" electricity_abs="0"/>
    </tripinfo>
    <tripinfo id="h17600c1:1" depart="57662.00" departLane="272042143_1" departPos="5.10" departSpeed="0.00" departDelay="0.30" arrival="57824.00" arrivalLane="201238729#3_1" arrivalPos="431.02" arrivalSpeed="13.71" duration="162.00" routeLength="2100.26" waitingTime="0.00" waitingCount="0" stopTime="0.00" timeLoss="11.03" rerouteNo="1" devices="tripinfo_h17600c1:1 routing_h17600c1:1 emissions_h17600c1:1" vType="default_016" speedFactor="1.00" vaporized="">
        <emissions CO_abs="3259.376941" CO2_abs="351906.792059" HC_abs="22.984161" PMx_abs="5.127387" NOx_abs="133.975688" fuel_abs="151.269793" electricity_abs="0"/>
    </tripinfo>
    <tripinfo id="carIn77438:1" depart="57614.00" departLane="124812856#0_1" departPos="5.10" departSpeed="0.00" departDelay="1.10" arrival="57827.00" arrivalLane="-128361102#1_1" arrivalPos="274.68" arrivalSpeed="13.17" duration="213.00" routeLength="2250.49" waitingTime="9.00" waitingCount="1" stopTime="0.00" timeLoss="44.97" rerouteNo="1" devices="tripinfo_carIn77438:1 routing_carIn77438:1 emissions_carIn77438:1" vType="default_016" speedFactor="0.98" vaporized="">
        <emissions CO_abs="7892.105261" CO2_abs="520519.187010" HC_abs="48.141785" PMx_abs="8.963338" NOx_abs="210.926951" fuel_abs="223.749233" electricity_abs="0"/>
    </tripinfo>
    <tripinfo id="h19804c1:3" depart="57617.00" departLane="124812856#0_1" departPos="5.10" departSpeed="0.00" departDelay="1.50" arrival="57828.00" arrivalLane="-128361102#1_1" arrivalPos="274.68" arrivalSpeed="12.83" duration="211.00" routeLength="2250.49" waitingTime="8.00" waitingCount="1" stopTime="0.00" timeLoss="47.79" rerouteNo="1" devices="tripinfo_h19804c1:3 routing_h19804c1:3 emissions_h19804c1:3" vType="default_016" speedFactor="1.00" vaporized="">
        <emissions CO_abs="8214.112088" CO2_abs="549736.414930" HC_abs="50.302164" PMx_abs="9.547968" NOx_abs="223.169086" fuel_abs="236.308269" electricity_abs="0"/>
    </tripinfo>
    <tripinfo id="h3864c1:3" depart="57678.00" departLane="24693977#1_1" departPos="5.10" departSpeed="0.00" departDelay="0.00" arrival="57829.00" arrivalLane="201956820_1" arrivalPos="48.33" arrivalSpeed="15.52" duration="151.00" routeLength="1574.85" waitingTime="7.00" waitingCount="2" stopTime="0.00" timeLoss="36.08" rerouteNo="1" devices="tripinfo_h3864c1:3 routing_h3864c1:3 emissions_h3864c1:3" vType="default_016" speedFactor="1.13" vaporized="">
        <emissions CO_abs="6819.770811" CO2_abs="437340.287194" HC_abs="41.375751" PMx_abs="8.119666" NOx_abs="180.935502" fuel_abs="187.993397" electricity_abs="0"/>
    </tripinfo>
    <tripinfo id="carIn107842:1" depart="57623.00" departLane="124812856#0_1" departPos="5.10" departSpeed="0.00" departDelay="1.90" arrival="57830.00" arrivalLane="-128361102#1_1" arrivalPos="274.68" arrivalSpeed="13.46" duration="207.00" routeLength="2250.49" waitingTime="8.00" waitingCount="1" stopTime="0.00" timeLoss="47.77" rerouteNo="1" devices="tripinfo_carIn107842:1 routing_carIn107842:1 emissions_carIn107842:1" vType="default_016" speedFactor="1.03" vaporized="">
        <emissions CO_abs="8000.627206" CO2_abs="564504.523048" HC_abs="49.719118" PMx_abs="9.868890" NOx_abs="229.300729" fuel_abs="242.656011" electricity_abs="0"/>
    </tripinfo>
    <tripinfo id="carIn86816:1" depart="57617.00" departLane="128361102#0_1" departPos="5.10" departSpeed="0.00" departDelay="0.80" arrival="57831.00" arrivalLane="201956811#0_1" arrivalPos="40.40" arrivalSpeed="9.55" duration="214.00" routeLength="2067.33" waitingTime="0.00" waitingCount="0" stopTime="0.00" timeLoss="20.13" rerouteNo="1" devices="tripinfo_carIn86816:1 routing_carIn86816:1 emissions_carIn86816:1" vType="default_016" speedFactor="0.78" vaporized="">
        <emissions CO_abs="5965.910636" CO2_abs="399005.408914" HC_abs="36.328886" PMx_abs="5.922493" NOx_abs="156.373863" fuel_abs="171.516880" electricity_abs="0"/>
    </tripinfo>