<?xml version="1.0" encoding="UTF-8"?>

<!-- generated on 2021-10-26 12:19:04 by Eclipse SUMO sumo Version 1.10.0
<configuration xmlns:xsi="http://www.w3.org/2001/XMLSchema-instance" xsi:noNamespaceSchemaLocation="http://sumo.dlr.de/xsd/sumoConfiguration.xsd">

    <input>
        <net-file value="/Users/behradkoohy/sumo-scratchpad/RESCO/environments/ingolstadt21/ingolstadt21.net.xml"/>
        <route-files value="/Users/behradkoohy/sumo-scratchpad/RESCO/environments/ingolstadt21/ingolstadt21.rou.xml"/>
    </input>

    <output>
        <tripinfo-output value="/Users/behradkoohy/sumo-scratchpad/RESCO/logs/MAXWAVE-tr0-ingolstadt21-21-wave-wait/tripinfo_88.xml"/>
        <tripinfo-output.write-unfinished value="true"/>
    </output>

    <time>
        <begin value="57600"/>
        <end value="61200"/>
    </time>

    <processing>
        <time-to-teleport value="-1"/>
    </processing>

    <report>
        <no-warnings value="true"/>
        <no-step-log value="true"/>
    </report>

    <emissions>
        <device.emissions.probability value="1"/>
    </emissions>

    <traci_server>
        <remote-port value="58163"/>
    </traci_server>

    <random_number>
        <random value="true"/>
    </random_number>

</configuration>
-->

<tripinfos xmlns:xsi="http://www.w3.org/2001/XMLSchema-instance" xsi:noNamespaceSchemaLocation="http://sumo.dlr.de/xsd/tripinfo_file.xsd">
    <tripinfo id="h15454c2:3" depart="57612.00" departLane="24608844_1" departPos="5.10" departSpeed="0.00" departDelay="0.50" arrival="57653.00" arrivalLane="32978638#0_1" arrivalPos="49.29" arrivalSpeed="12.65" duration="41.00" routeLength="354.79" waitingTime="0.00" waitingCount="0" stopTime="0.00" timeLoss="6.49" rerouteNo="1" devices="tripinfo_h15454c2:3 routing_h15454c2:3 emissions_h15454c2:3" vType="default_016" speedFactor="1.00" vaporized="">
        <emissions CO_abs="2007.444318" CO2_abs="107398.591453" HC_abs="11.641759" PMx_abs="1.853881" NOx_abs="43.991429" fuel_abs="46.166394" electricity_abs="0"/>
    </tripinfo>
    <tripinfo id="carIn60260:1" depart="57606.00" departLane="315358254#0_1" departPos="5.10" departSpeed="0.00" departDelay="0.90" arrival="57659.00" arrivalLane="399835085#1_1" arrivalPos="212.23" arrivalSpeed="7.03" duration="53.00" routeLength="430.98" waitingTime="0.00" waitingCount="0" stopTime="0.00" timeLoss="6.54" rerouteNo="1" devices="tripinfo_carIn60260:1 routing_carIn60260:1 emissions_carIn60260:1" vType="default_016" speedFactor="0.98" vaporized="">
        <emissions CO_abs="2161.499650" CO2_abs="109676.809452" HC_abs="12.379239" PMx_abs="1.831837" NOx_abs="44.647872" fuel_abs="47.145886" electricity_abs="0"/>
    </tripinfo>
    <tripinfo id="h12244c1:3" depart="57612.00" departLane="315358244_1" departPos="5.10" departSpeed="0.00" departDelay="0.40" arrival="57693.00" arrivalLane="386687235_1" arrivalPos="80.84" arrivalSpeed="15.70" duration="81.00" routeLength="1186.14" waitingTime="0.00" waitingCount="0" stopTime="0.00" timeLoss="7.41" rerouteNo="1" devices="tripinfo_h12244c1:3 routing_h12244c1:3 emissions_h12244c1:3" vType="default_016" speedFactor="1.18" vaporized="">
        <emissions CO_abs="2422.565119" CO2_abs="228343.605432" HC_abs="16.126173" PMx_abs="3.799275" NOx_abs="89.266211" fuel_abs="98.154787" electricity_abs="0"/>
    </tripinfo>
    <tripinfo id="carIn53971:1" depart="57640.00" departLane="272042143_1" departPos="5.10" departSpeed="0.00" departDelay="0.80" arrival="57696.00" arrivalLane="24634414#1_1" arrivalPos="162.19" arrivalSpeed="7.22" duration="56.00" routeLength="493.04" waitingTime="0.00" waitingCount="0" stopTime="0.00" timeLoss="8.70" rerouteNo="1" devices="tripinfo_carIn53971:1 routing_carIn53971:1 emissions_carIn53971:1" vType="default_016" speedFactor="0.97" vaporized="">
        <emissions CO_abs="2497.103769" CO2_abs="137128.530178" HC_abs="14.569959" PMx_abs="2.383582" NOx_abs="56.206622" fuel_abs="58.946040" electricity_abs="0"/>
    </tripinfo>
    <tripinfo id="S5R_frequency1.2" depart="57615.00" departLane="315358250#0_1" departPos="12.10" departSpeed="0.00" departDelay="3.40" arrival="57708.00" arrivalLane="386687235_1" arrivalPos="80.84" arrivalSpeed="13.40" duration="93.00" routeLength="1115.62" waitingTime="0.00" waitingCount="0" stopTime="0.00" timeLoss="11.48" rerouteNo="1" devices="tripinfo_S5R_frequency1.2 routing_S5R_frequency1.2 emissions_S5R_frequency1.2" vType="bus" speedFactor="1.00" vaporized="">
        <emissions CO_abs="1763.966074" CO2_abs="1133787.361147" HC_abs="365.894907" PMx_abs="189.466978" NOx_abs="8725.323661" fuel_abs="483.552719" electricity_abs="0"/>
    </tripinfo>
    <tripinfo id="h7800c1:5" depart="57696.00" departLane="-447569998#1_1" departPos="5.10" departSpeed="0.00" departDelay="0.00" arrival="57720.00" arrivalLane="-447569998#1_1" arrivalPos="180.76" arrivalSpeed="8.26" duration="24.00" routeLength="175.66" waitingTime="0.00" waitingCount="0" stopTime="0.00" timeLoss="3.12" rerouteNo="1" devices="tripinfo_h7800c1:5 routing_h7800c1:5 emissions_h7800c1:5" vType="default_016" speedFactor="1.04" vaporized="">
        <emissions CO_abs="1189.761659" CO2_abs="54596.349206" HC_abs="6.674179" PMx_abs="0.904026" NOx_abs="22.256195" fuel_abs="23.468993" electricity_abs="0"/>
    </tripinfo>
    <tripinfo id="h3688c1:1" depart="57625.00" departLane="201201950#1_1" departPos="5.10" departSpeed="0.00" departDelay="0.00" arrival="57721.00" arrivalLane="32978638#0_1" arrivalPos="49.29" arrivalSpeed="13.51" duration="96.00" routeLength="1089.75" waitingTime="1.00" waitingCount="1" stopTime="0.00" timeLoss="15.80" rerouteNo="1" devices="tripinfo_h3688c1:1 routing_h3688c1:1 emissions_h3688c1:1" vType="default_016" speedFactor="0.99" vaporized="">
        <emissions CO_abs="3593.437957" CO2_abs="259316.045593" HC_abs="22.412591" PMx_abs="4.355591" NOx_abs="103.902253" fuel_abs="111.468947" electricity_abs="0"/>
    </tripinfo>
    <tripinfo id="h3568c1:3" depart="57656.00" departLane="266565295#5_1" departPos="5.10" departSpeed="0.00" departDelay="0.80" arrival="57726.00" arrivalLane="-24634415_1" arrivalPos="62.03" arrivalSpeed="15.09" duration="70.00" routeLength="807.40" waitingTime="0.00" waitingCount="0" stopTime="0.00" timeLoss="12.96" rerouteNo="1" devices="tripinfo_h3568c1:3 routing_h3568c1:3 emissions_h3568c1:3" vType="default_016" speedFactor="1.12" vaporized="">
        <emissions CO_abs="3566.929829" CO2_abs="236098.133544" HC_abs="21.754851" PMx_abs="4.340302" NOx_abs="97.126658" fuel_abs="101.488212" electricity_abs="0"/>
    </tripinfo>
    <tripinfo id="h9563c2:5" depart="57631.00" departLane="315358244_1" departPos="5.10" departSpeed="0.00" departDelay="0.70" arrival="57729.00" arrivalLane="386687235_1" arrivalPos="80.84" arrivalSpeed="13.07" duration="98.00" routeLength="1186.14" waitingTime="0.00" waitingCount="0" stopTime="0.00" timeLoss="7.68" rerouteNo="1" devices="tripinfo_h9563c2:5 routing_h9563c2:5 emissions_h9563c2:5" vType="default_016" speedFactor="0.96" vaporized="">
        <emissions CO_abs="2398.965740" CO2_abs="209889.314019" HC_abs="15.793496" PMx_abs="3.225894" NOx_abs="81.764106" fuel_abs="90.222561" electricity_abs="0"/>
    </tripinfo>
    <tripinfo id="h317c2:1" depart="57707.00" departLane="-32978638#0_1" departPos="5.10" departSpeed="0.00" departDelay="0.10" arrival="57744.00" arrivalLane="-266565295#5_1" arrivalPos="172.76" arrivalSpeed="14.07" duration="37.00" routeLength="370.53" waitingTime="1.00" waitingCount="1" stopTime="0.00" timeLoss="11.49" rerouteNo="1" devices="tripinfo_h317c2:1 routing_h317c2:1 emissions_h317c2:1" vType="default_016" speedFactor="1.09" vaporized="">
        <emissions CO_abs="2283.627432" CO2_abs="132784.503440" HC_abs="13.506119" PMx_abs="2.503667" NOx_abs="55.208972" fuel_abs="57.078347" electricity_abs="0"/>
    </tripinfo>
    <tripinfo id="carIn22761:1" depart="57616.00" departLane="-306240162#1_0" departPos="5.10" departSpeed="0.00" departDelay="2.10" arrival="57746.00" arrivalLane="399835085#1_1" arrivalPos="212.23" arrivalSpeed="7.57" duration="130.00" routeLength="1093.26" waitingTime="34.00" waitingCount="1" stopTime="0.00" timeLoss="47.41" rerouteNo="1" devices="tripinfo_carIn22761:1 routing_carIn22761:1 emissions_carIn22761:1" vType="default_016" speedFactor="0.95" vaporized="">
        <emissions CO_abs="9349.140324" CO2_abs="349441.422053" HC_abs="50.776553" PMx_abs="6.951260" NOx_abs="146.489300" fuel_abs="150.212268" electricity_abs="0"/>
    </tripinfo>
    <tripinfo id="carIn80064:1" depart="57603.00" departLane="128361109#1_1" departPos="5.10" departSpeed="0.00" departDelay="0.40" arrival="57749.00" arrivalLane="-315358254#1_1" arrivalPos="137.16" arrivalSpeed="11.28" duration="146.00" routeLength="1587.97" waitingTime="14.00" waitingCount="2" stopTime="0.00" timeLoss="40.77" rerouteNo="1" devices="tripinfo_carIn80064:1 routing_carIn80064:1 emissions_carIn80064:1" vType="default_016" speedFactor="0.85" vaporized="">
        <emissions CO_abs="6583.220551" CO2_abs="418448.396997" HC_abs="39.840054" PMx_abs="7.819756" NOx_abs="172.248041" fuel_abs="179.872692" electricity_abs="0"/>
    </tripinfo>
    <tripinfo id="carIn30817:1" depart="57681.00" departLane="315358244_1" departPos="5.10" departSpeed="0.00" departDelay="0.20" arrival="57754.00" arrivalLane="447569997#1_1" arrivalPos="180.93" arrivalSpeed="7.54" duration="73.00" routeLength="718.04" waitingTime="0.00" waitingCount="0" stopTime="0.00" timeLoss="7.85" rerouteNo="1" devices="tripinfo_carIn30817:1 routing_carIn30817:1 emissions_carIn30817:1" vType="default_016" speedFactor="0.95" vaporized="">
        <emissions CO_abs="2389.742589" CO2_abs="147374.338127" HC_abs="14.294632" PMx_abs="2.354061" NOx_abs="58.696875" fuel_abs="63.350405" electricity_abs="0"/>
    </tripinfo>
    <tripinfo id="h4538c1:1" depart="57701.00" departLane="-10427692#1_1" departPos="5.10" departSpeed="0.00" departDelay="0.00" arrival="57757.00" arrivalLane="-128361102#1_1" arrivalPos="274.68" arrivalSpeed="13.13" duration="56.00" routeLength="440.74" waitingTime="14.00" waitingCount="1" stopTime="0.00" timeLoss="23.49" rerouteNo="1" devices="tripinfo_h4538c1:1 routing_h4538c1:1 emissions_h4538c1:1" vType="default_016" speedFactor="0.98" vaporized="">
        <emissions CO_abs="2990.207008" CO2_abs="136701.145188" HC_abs="16.805887" PMx_abs="2.434458" NOx_abs="55.875042" fuel_abs="58.762719" electricity_abs="0"/>
    </tripinfo>
    <tripinfo id="h645c1:1" depart="57622.00" departLane="266565295#5_1" departPos="5.10" departSpeed="0.00" departDelay="0.40" arrival="57760.00" arrivalLane="-315358244_1" arrivalPos="33.95" arrivalSpeed="14.28" duration="138.00" routeLength="1910.83" waitingTime="0.00" waitingCount="0" stopTime="0.00" timeLoss="11.74" rerouteNo="1" devices="tripinfo_h645c1:1 routing_h645c1:1 emissions_h645c1:1" vType="default_016" speedFactor="1.10" vaporized="">
        <emissions CO_abs="3468.557842" CO2_abs="335580.811487" HC_abs="23.592718" PMx_abs="5.445504" NOx_abs="131.022832" fuel_abs="144.251427" electricity_abs="0"/>
    </tripinfo>
    <tripinfo id="h7181c1:1" depart="57660.00" departLane="315358254#0_1" departPos="5.10" departSpeed="0.00" departDelay="0.10" arrival="57764.00" arrivalLane="306240162#0_0" arrivalPos="220.43" arrivalSpeed="13.18" duration="104.00" routeLength="932.35" waitingTime="31.00" waitingCount="1" stopTime="0.00" timeLoss="42.42" rerouteNo="1" devices="tripinfo_h7181c1:1 routing_h7181c1:1 emissions_h7181c1:1" vType="default_016" speedFactor="0.84" vaporized="">
        <emissions CO_abs="6864.891442" CO2_abs="271772.108008" HC_abs="37.618710" PMx_abs="5.353433" NOx_abs="113.437490" fuel_abs="116.824774" electricity_abs="0"/>
    </tripinfo>
    <tripinfo id="h330c1:1" depart="57736.00" departLane="-32978638#0_1" departPos="5.10" departSpeed="0.00" departDelay="0.20" arrival="57774.00" arrivalLane="-266565295#5_1" arrivalPos="172.76" arrivalSpeed="14.49" duration="38.00" routeLength="370.53" waitingTime="3.00" waitingCount="1" stopTime="0.00" timeLoss="11.90" rerouteNo="1" devices="tripinfo_h330c1:1 routing_h330c1:1 emissions_h330c1:1" vType="default_016" speedFactor="1.07" vaporized="">
        <emissions CO_abs="2123.438603" CO2_abs="128924.741972" HC_abs="12.710934" PMx_abs="2.380357" NOx_abs="53.254245" fuel_abs="55.419207" electricity_abs="0"/>
    </tripinfo>
    <tripinfo id="carIn118591:1" depart="57689.00" departLane="315358244_1" departPos="5.10" departSpeed="0.00" departDelay="0.20" arrival="57775.00" arrivalLane="386687235_1" arrivalPos="80.84" arrivalSpeed="14.96" duration="86.00" routeLength="1186.14" waitingTime="0.00" waitingCount="0" stopTime="0.00" timeLoss="7.84" rerouteNo="1" devices="tripinfo_carIn118591:1 routing_carIn118591:1 emissions_carIn118591:1" vType="default_016" speedFactor="1.12" vaporized="">
        <emissions CO_abs="2469.712434" CO2_abs="235598.381285" HC_abs="16.744473" PMx_abs="3.817198" NOx_abs="91.886926" fuel_abs="101.273429" electricity_abs="0"/>
    </tripinfo>
    <tripinfo id="carIn86816:1" depart="57617.00" departLane="128361102#0_1" departPos="5.10" departSpeed="0.00" departDelay="0.80" arrival="57779.00" arrivalLane="201956811#0_1" arrivalPos="40.40" arrivalSpeed="14.34" duration="162.00" routeLength="2067.33" waitingTime="0.00" waitingCount="0" stopTime="0.00" timeLoss="16.40" rerouteNo="1" devices="tripinfo_carIn86816:1 routing_carIn86816:1 emissions_carIn86816:1" vType="default_016" speedFactor="1.04" vaporized="">
        <emissions CO_abs="5055.486834" CO2_abs="419473.808606" HC_abs="32.823877" PMx_abs="7.038548" NOx_abs="167.024958" fuel_abs="180.313426" electricity_abs="0"/>
    </tripinfo>
    <tripinfo id="carIn27009:1" depart="57673.00" departLane="-447569998#1_1" departPos="5.10" departSpeed="0.00" departDelay="0.50" arrival="57780.00" arrivalLane="-26677539_1" arrivalPos="152.75" arrivalSpeed="6.87" duration="107.00" routeLength="699.63" waitingTime="1.00" waitingCount="1" stopTime="0.00" timeLoss="15.63" rerouteNo="1" devices="tripinfo_carIn27009:1 routing_carIn27009:1 emissions_carIn27009:1" vType="default_015" speedFactor="0.92" vaporized="">
        <emissions CO_abs="4572.510201" CO2_abs="193628.395117" HC_abs="25.254648" PMx_abs="3.163352" NOx_abs="78.907649" fuel_abs="83.234176" electricity_abs="0"/>
    </tripinfo>
    <tripinfo id="h3326c1:2" depart="57656.00" departLane="22716069#0_1" departPos="5.10" departSpeed="0.00" departDelay="0.00" arrival="57782.00" arrivalLane="24634517#13_1" arrivalPos="111.62" arrivalSpeed="11.86" duration="126.00" routeLength="1312.81" waitingTime="1.00" waitingCount="1" stopTime="0.00" timeLoss="16.17" rerouteNo="1" devices="tripinfo_h3326c1:2 routing_h3326c1:2 emissions_h3326c1:2" vType="default_016" speedFactor="0.89" vaporized="">
        <emissions CO_abs="4404.526589" CO2_abs="295585.897773" HC_abs="26.945094" PMx_abs="4.874275" NOx_abs="118.552090" fuel_abs="127.060150" electricity_abs="0"/>
    </tripinfo>
    <tripinfo id="h3154c1:1" depart="57658.00" departLane="24634507_1" departPos="5.10" departSpeed="0.00" departDelay="0.00" arrival="57786.00" arrivalLane="-266565295#5_1" arrivalPos="172.76" arrivalSpeed="14.11" duration="128.00" routeLength="1206.22" waitingTime="16.00" waitingCount="3" stopTime="0.00" timeLoss="41.09" rerouteNo="1" devices="tripinfo_h3154c1:1 routing_h3154c1:1 emissions_h3154c1:1" vType="default_016" speedFactor="1.03" vaporized="">
        <emissions CO_abs="6928.882040" CO2_abs="358309.472369" HC_abs="40.007074" PMx_abs="6.828894" NOx_abs="149.646244" fuel_abs="154.022371" electricity_abs="0"/>
    </tripinfo>
    <tripinfo id="carIn12365:1" depart="57713.00" departLane="315358244_1" departPos="5.10" departSpeed="0.00" departDelay="0.50" arrival="57790.00" arrivalLane="447569997#1_1" arrivalPos="180.93" arrivalSpeed="8.42" duration="77.00" routeLength="718.04" waitingTime="8.00" waitingCount="1" stopTime="0.00" timeLoss="17.97" rerouteNo="1" devices="tripinfo_carIn12365:1 routing_carIn12365:1 emissions_carIn12365:1" vType="default_016" speedFactor="1.05" vaporized="">
        <emissions CO_abs="2922.379544" CO2_abs="167276.465087" HC_abs="17.206472" PMx_abs="2.817815" NOx_abs="67.310436" fuel_abs="71.905527" electricity_abs="0"/>
    </tripinfo>
    <tripinfo id="carIn107084:1" depart="57601.00" departLane="124812856#0_1" departPos="5.10" departSpeed="0.00" departDelay="0.70" arrival="57792.00" arrivalLane="-128361102#1_1" arrivalPos="274.68" arrivalSpeed="13.30" duration="191.00" routeLength="2250.49" waitingTime="2.00" waitingCount="1" stopTime="0.00" timeLoss="25.13" rerouteNo="1" devices="tripinfo_carIn107084:1 routing_carIn107084:1 emissions_carIn107084:1" vType="default_016" speedFactor="0.99" vaporized="">
        <emissions CO_abs="5594.666507" CO2_abs="483078.227495" HC_abs="36.704809" PMx_abs="7.557142" NOx_abs="188.800116" fuel_abs="207.654833" electricity_abs="0"/>
    </tripinfo>
    <tripinfo id="carIn462:1" depart="57622.00" departLane="-306240162#1_0" departPos="5.10" departSpeed="0.00" departDelay="4.80" arrival="57792.00" arrivalLane="386687235_2" arrivalPos="80.84" arrivalSpeed="13.61" duration="170.00" routeLength="2257.41" waitingTime="0.00" waitingCount="0" stopTime="0.00" timeLoss="29.20" rerouteNo="1" devices="tripinfo_carIn462:1 routing_carIn462:1 emissions_carIn462:1" vType="default_016" speedFactor="1.06" vaporized="">
        <emissions CO_abs="6711.270466" CO2_abs="527803.069751" HC_abs="43.069790" PMx_abs="9.426372" NOx_abs="212.965649" fuel_abs="226.878965" electricity_abs="0"/>
    </tripinfo>
    <tripinfo id="carIn48184:1" depart="57613.00" departLane="-306240162#1_0" departPos="5.10" departSpeed="0.00" departDelay="0.70" arrival="57793.00" arrivalLane="386687235_1" arrivalPos="80.84" arrivalSpeed="15.27" duration="180.00" routeLength="2257.41" waitingTime="17.00" waitingCount="2" stopTime="0.00" timeLoss="47.44" rerouteNo="1" devices="tripinfo_carIn48184:1 routing_carIn48184:1 emissions_carIn48184:1" vType="default_016" speedFactor="1.12" vaporized="">
        <emissions CO_abs="8997.945739" CO2_abs="583034.610501" HC_abs="54.764994" PMx_abs="10.927470" NOx_abs="237.265997" fuel_abs="250.621225" electricity_abs="0"/>
    </tripinfo>
    <tripinfo id="carIn82220:1" depart="57619.00" departLane="-306240162#1_0" departPos="5.10" departSpeed="0.00" departDelay="3.50" arrival="57796.00" arrivalLane="386687235_1" arrivalPos="80.84" arrivalSpeed="12.37" duration="177.00" routeLength="2257.41" waitingTime="0.00" waitingCount="0" stopTime="0.00" timeLoss="16.85" rerouteNo="1" devices="tripinfo_carIn82220:1 routing_carIn82220:1 emissions_carIn82220:1" vType="default_016" speedFactor="0.93" vaporized="">
        <emissions CO_abs="5315.266358" CO2_abs="456392.681357" HC_abs="34.865572" PMx_abs="7.534261" NOx_abs="180.263436" fuel_abs="196.183334" electricity_abs="0"/>
    </tripinfo>
    <tripinfo id="carIn129809:1" depart="57729.00" departLane="-447569998#1_1" departPos="5.10" departSpeed="0.00" departDelay="1.00" arrival="57796.00" arrivalLane="-315358244_1" arrivalPos="33.95" arrivalSpeed="13.56" duration="67.00" routeLength="706.49" waitingTime="0.00" waitingCount="0" stopTime="0.00" timeLoss="8.31" rerouteNo="1" devices="tripinfo_carIn129809:1 routing_carIn129809:1 emissions_carIn129809:1" vType="default_015" speedFactor="1.04" vaporized="">
        <emissions CO_abs="2089.092225" CO2_abs="143303.235058" HC_abs="12.812764" PMx_abs="2.269940" NOx_abs="56.514162" fuel_abs="61.600267" electricity_abs="0"/>
    </tripinfo>
    <tripinfo id="carIn107282:1" depart="57749.00" departLane="-447569998#1_1" departPos="5.10" departSpeed="0.00" departDelay="0.00" arrival="57797.00" arrivalLane="315358242#0_1" arrivalPos="165.37" arrivalSpeed="12.34" duration="48.00" routeLength="448.50" waitingTime="0.00" waitingCount="0" stopTime="0.00" timeLoss="5.04" rerouteNo="1" devices="tripinfo_carIn107282:1 routing_carIn107282:1 emissions_carIn107282:1" vType="default_016" speedFactor="0.97" vaporized="">
        <emissions CO_abs="1937.878594" CO2_abs="111060.313571" HC_abs="11.402163" PMx_abs="1.840815" NOx_abs="44.825398" fuel_abs="47.740439" electricity_abs="0"/>
    </tripinfo>
    <tripinfo id="carIn77943:1" depart="57608.00" departLane="124812856#0_1" departPos="5.10" departSpeed="0.00" departDelay="2.50" arrival="57800.00" arrivalLane="-128361102#1_1" arrivalPos="274.68" arrivalSpeed="13.82" duration="192.00" routeLength="2250.49" waitingTime="1.00" waitingCount="1" stopTime="0.00" timeLoss="26.97" rerouteNo="1" devices="tripinfo_carIn77943:1 routing_carIn77943:1 emissions_carIn77943:1" vType="default_016" speedFactor="1.00" vaporized="">
        <emissions CO_abs="5722.932857" CO2_abs="462509.769217" HC_abs="36.833373" PMx_abs="7.447950" NOx_abs="182.587125" fuel_abs="198.813267" electricity_abs="0"/>
    </tripinfo>
    <tripinfo id="carIn81860:1" depart="57712.00" departLane="128361102#0_1" departPos="5.10" departSpeed="0.00" departDelay="0.60" arrival="57800.00" arrivalLane="-24634517#17_1" arrivalPos="6.43" arrivalSpeed="8.24" duration="88.00" routeLength="1229.64" waitingTime="0.00" waitingCount="0" stopTime="0.00" timeLoss="14.58" rerouteNo="1" devices="tripinfo_carIn81860:1 routing_carIn81860:1 emissions_carIn81860:1" vType="default_016" speedFactor="1.23" vaporized="">
        <emissions CO_abs="3502.999556" CO2_abs="276887.532234" HC_abs="22.459162" PMx_abs="4.971572" NOx_abs="111.267295" fuel_abs="119.021579" electricity_abs="0"/>
    </tripinfo>
    <tripinfo id="carIn82278:1" depart="57702.00" departLane="-306240162#1_0" departPos="5.10" departSpeed="0.00" departDelay="0.70" arrival="57802.00" arrivalLane="399835085#1_1" arrivalPos="212.23" arrivalSpeed="8.47" duration="100.00" routeLength="1093.26" waitingTime="9.00" waitingCount="1" stopTime="0.00" timeLoss="26.85" rerouteNo="1" devices="tripinfo_carIn82278:1 routing_carIn82278:1 emissions_carIn82278:1" vType="default_016" speedFactor="1.07" vaporized="">
        <emissions CO_abs="5393.465984" CO2_abs="306036.820521" HC_abs="31.847855" PMx_abs="5.988737" NOx_abs="127.299376" fuel_abs="131.551998" electricity_abs="0"/>
    </tripinfo>
    <tripinfo id="carIn50326:1" depart="57651.00" departLane="128361102#0_1" departPos="5.10" departSpeed="0.00" departDelay="0.30" arrival="57803.00" arrivalLane="18809673#0_1" arrivalPos="473.56" arrivalSpeed="12.92" duration="152.00" routeLength="1591.07" waitingTime="2.00" waitingCount="1" stopTime="0.00" timeLoss="22.28" rerouteNo="1" devices="tripinfo_carIn50326:1 routing_carIn50326:1 emissions_carIn50326:1" vType="default_016" speedFactor="1.00" vaporized="">
        <emissions CO_abs="5090.462903" CO2_abs="356650.117896" HC_abs="31.472933" PMx_abs="5.726848" NOx_abs="141.338219" fuel_abs="153.309249" electricity_abs="0"/>
    </tripinfo>
    <tripinfo id="carIn81046:1" depart="57611.00" departLane="124812856#0_1" departPos="5.10" departSpeed="0.00" departDelay="2.50" arrival="57808.00" arrivalLane="-128361102#1_1" arrivalPos="274.68" arrivalSpeed="12.25" duration="197.00" routeLength="2250.49" waitingTime="0.00" waitingCount="0" stopTime="0.00" timeLoss="24.89" rerouteNo="1" devices="tripinfo_carIn81046:1 routing_carIn81046:1 emissions_carIn81046:1" vType="default_016" speedFactor="0.96" vaporized="">
        <emissions CO_abs="5528.594255" CO2_abs="445213.677347" HC_abs="35.541202" PMx_abs="7.057875" NOx_abs="175.451355" fuel_abs="191.378562" electricity_abs="0"/>
    </tripinfo>
    <tripinfo id="h11737c1:1" depart="57665.00" departLane="272042143_1" departPos="5.10" departSpeed="0.00" departDelay="1.50" arrival="57808.00" arrivalLane="-315358254#1_1" arrivalPos="137.16" arrivalSpeed="12.63" duration="143.00" routeLength="1596.88" waitingTime="2.00" waitingCount="1" stopTime="0.00" timeLoss="19.57" rerouteNo="1" devices="tripinfo_h11737c1:1 routing_h11737c1:1 emissions_h11737c1:1" vType="default_016" speedFactor="0.94" vaporized="">
        <emissions CO_abs="4174.623027" CO2_abs="323531.402904" HC_abs="26.555073" PMx_abs="5.189981" NOx_abs="127.911969" fuel_abs="139.072530" electricity_abs="0"/>
    </tripinfo>
    <tripinfo id="carIn126288:1" depart="57674.00" departLane="272042143_1" departPos="5.10" departSpeed="0.00" departDelay="0.00" arrival="57809.00" arrivalLane="-315358254#1_1" arrivalPos="137.16" arrivalSpeed="13.77" duration="135.00" routeLength="1596.88" waitingTime="1.00" waitingCount="1" stopTime="0.00" timeLoss="20.52" rerouteNo="1" devices="tripinfo_carIn126288:1 routing_carIn126288:1 emissions_carIn126288:1" vType="default_016" speedFactor="1.02" vaporized="">
        <emissions CO_abs="4279.919429" CO2_abs="331257.783961" HC_abs="27.236599" PMx_abs="5.568039" NOx_abs="132.389751" fuel_abs="142.393410" electricity_abs="0"/>
    </tripinfo>
    <tripinfo id="carIn12152:1" depart="57647.00" departLane="24599188#0.94_1" departPos="5.10" departSpeed="0.00" departDelay="0.50" arrival="57811.00" arrivalLane="-315358254#1_1" arrivalPos="137.16" arrivalSpeed="14.88" duration="164.00" routeLength="2034.31" waitingTime="0.00" waitingCount="0" stopTime="0.00" timeLoss="20.76" rerouteNo="1" devices="tripinfo_carIn12152:1 routing_carIn12152:1 emissions_carIn12152:1" vType="default_016" speedFactor="1.10" vaporized="">
        <emissions CO_abs="5258.345717" CO2_abs="411103.601449" HC_abs="33.430431" PMx_abs="6.896266" NOx_abs="163.369895" fuel_abs="176.715714" electricity_abs="0"/>
    </tripinfo>
    <tripinfo id="carIn77438:1" depart="57614.00" departLane="124812856#0_1" departPos="5.10" departSpeed="0.00" departDelay="1.10" arrival="57812.00" arrivalLane="-128361102#1_1" arrivalPos="274.68" arrivalSpeed="12.90" duration="198.00" routeLength="2250.49" waitingTime="0.00" waitingCount="0" stopTime="0.00" timeLoss="24.30" rerouteNo="1" devices="tripinfo_carIn77438:1 routing_carIn77438:1 emissions_carIn77438:1" vType="default_016" speedFactor="0.94" vaporized="">
        <emissions CO_abs="5708.829841" CO2_abs="450082.595502" HC_abs="36.469193" PMx_abs="7.095002" NOx_abs="177.297144" fuel_abs="193.471650" electricity_abs="0"/>
    </tripinfo>
    <tripinfo id="carIn31257:1" depart="57630.00" departLane="-306240162#1_0" departPos="5.10" departSpeed="0.00" departDelay="1.60" arrival="57813.00" arrivalLane="386687235_1" arrivalPos="80.84" arrivalSpeed="14.90" duration="183.00" routeLength="2257.41" waitingTime="7.00" waitingCount="1" stopTime="0.00" timeLoss="47.32" rerouteNo="1" devices="tripinfo_carIn31257:1 routing_carIn31257:1 emissions_carIn31257:1" vType="default_016" speedFactor="1.10" vaporized="">
        <emissions CO_abs="7117.142431" CO2_abs="538709.362528" HC_abs="44.959771" PMx_abs="9.454301" NOx_abs="216.661063" fuel_abs="231.567506" electricity_abs="0"/>
    </tripinfo>
    <tripinfo id="carIn116184:1" depart="57627.00" departLane="-306240162#1_0" departPos="5.10" departSpeed="0.00" departDelay="0.10" arrival="57814.00" arrivalLane="386687235_2" arrivalPos="80.84" arrivalSpeed="11.60" duration="187.00" routeLength="2257.41" waitingTime="0.00" waitingCount="0" stopTime="0.00" timeLoss="21.28" rerouteNo="1" devices="tripinfo_carIn116184:1 routing_carIn116184:1 emissions_carIn116184:1" vType="default_016" speedFactor="0.90" vaporized="">
        <emissions CO_abs="5874.910120" CO2_abs="474473.071624" HC_abs="37.825265" PMx_abs="7.767551" NOx_abs="187.363291" fuel_abs="203.955668" electricity_abs="0"/>
    </tripinfo>
    <tripinfo id="h5979c1:5" depart="57669.00" departLane="399835085#1_1" departPos="5.10" departSpeed="0.00" departDelay="0.00" arrival="57815.00" arrivalLane="-315358254#1_1" arrivalPos="137.16" arrivalSpeed="11.90" duration="146.00" routeLength="659.33" waitingTime="50.00" waitingCount="2" stopTime="0.00" timeLoss="66.20" rerouteNo="1" devices="tripinfo_h5979c1:5 routing_h5979c1:5 emissions_h5979c1:5" vType="default_016" speedFactor="0.91" vaporized="">
        <emissions CO_abs="11046.684957" CO2_abs="292184.143684" HC_abs="57.059635" PMx_abs="5.720746" NOx_abs="124.384519" fuel_abs="125.602082" electricity_abs="0"/>
    </tripinfo>
    <tripinfo id="carIn12858:1" depart="57661.00" departLane="128361109#1_1" departPos="5.10" departSpeed="0.00" departDelay="0.90" arrival="57818.00" arrivalLane="399835085#1_1" arrivalPos="212.23" arrivalSpeed="8.80" duration="157.00" routeLength="1738.12" waitingTime="22.00" waitingCount="1" stopTime="0.00" timeLoss="53.68" rerouteNo="1" devices="tripinfo_carIn12858:1 routing_carIn12858:1 emissions_carIn12858:1" vType="default_016" speedFactor="1.11" vaporized="">
        <emissions CO_abs="10729.726680" CO2_abs="557739.805137" HC_abs="62.167029" PMx_abs="11.272259" NOx_abs="233.672192" fuel_abs="239.748514" electricity_abs="0"/>
    </tripinfo>
    <tripinfo id="carIn102915:1" depart="57643.00" departLane="128361102#0_1" departPos="5.10" departSpeed="0.00" departDelay="0.40" arrival="57821.00" arrivalLane="201956811#0_1" arrivalPos="40.40" arrivalSpeed="13.02" duration="178.00" routeLength="2067.33" waitingTime="0.00" waitingCount="0" stopTime="0.00" timeLoss="20.45" rerouteNo="1" devices="tripinfo_carIn102915:1 routing_carIn102915:1 emissions_carIn102915:1" vType="default_016" speedFactor="0.96" vaporized="">
        <emissions CO_abs="5368.856983" CO2_abs="422529.988284" HC_abs="34.288013" PMx_abs="6.765590" NOx_abs="166.944094" fuel_abs="181.627802" electricity_abs="0"/>
    </tripinfo>
    <tripinfo id="h19804c1:3" depart="57617.00" departLane="124812856#0_1" departPos="5.10" departSpeed="0.00" departDelay="1.50" arrival="57829.00" arrivalLane="-128361102#1_1" arrivalPos="274.68" arrivalSpeed="11.68" duration="212.00" routeLength="2250.49" waitingTime="0.00" waitingCount="0" stopTime="0.00" timeLoss="22.34" rerouteNo="1" devices="tripinfo_h19804c1:3 routing_h19804c1:3 emissions_h19804c1:3" vType="default_016" speedFactor="0.87" vaporized="">
        <emissions CO_abs="6005.262981" CO2_abs="433169.981071" HC_abs="37.409033" PMx_abs="6.906562" NOx_abs="172.188268" fuel_abs="186.201835" electricity_abs="0"/>
    </tripinfo>