<?xml version="1.0" encoding="UTF-8"?>

<!-- generated on 2021-10-26 11:50:45 by Eclipse SUMO sumo Version 1.10.0
<configuration xmlns:xsi="http://www.w3.org/2001/XMLSchema-instance" xsi:noNamespaceSchemaLocation="http://sumo.dlr.de/xsd/sumoConfiguration.xsd">

    <input>
        <net-file value="/Users/behradkoohy/sumo-scratchpad/RESCO/environments/ingolstadt21/ingolstadt21.net.xml"/>
        <route-files value="/Users/behradkoohy/sumo-scratchpad/RESCO/environments/ingolstadt21/ingolstadt21.rou.xml"/>
    </input>

    <output>
        <tripinfo-output value="/Users/behradkoohy/sumo-scratchpad/RESCO/logs/MAXWAVE-tr0-ingolstadt21-21-wave-wait/tripinfo_42.xml"/>
        <tripinfo-output.write-unfinished value="true"/>
    </output>

    <time>
        <begin value="57600"/>
        <end value="61200"/>
    </time>

    <processing>
        <time-to-teleport value="-1"/>
    </processing>

    <report>
        <no-warnings value="true"/>
        <no-step-log value="true"/>
    </report>

    <emissions>
        <device.emissions.probability value="1"/>
    </emissions>

    <traci_server>
        <remote-port value="57591"/>
    </traci_server>

    <random_number>
        <random value="true"/>
    </random_number>

</configuration>
-->

<tripinfos xmlns:xsi="http://www.w3.org/2001/XMLSchema-instance" xsi:noNamespaceSchemaLocation="http://sumo.dlr.de/xsd/tripinfo_file.xsd">
    <tripinfo id="h15454c2:3" depart="57612.00" departLane="24608844_1" departPos="5.10" departSpeed="0.00" departDelay="0.50" arrival="57651.00" arrivalLane="32978638#0_1" arrivalPos="49.29" arrivalSpeed="13.56" duration="39.00" routeLength="354.79" waitingTime="0.00" waitingCount="0" stopTime="0.00" timeLoss="5.72" rerouteNo="1" devices="tripinfo_h15454c2:3 routing_h15454c2:3 emissions_h15454c2:3" vType="default_016" speedFactor="1.03" vaporized="">
        <emissions CO_abs="1996.875583" CO2_abs="114026.676199" HC_abs="11.758317" PMx_abs="1.989746" NOx_abs="46.706599" fuel_abs="49.015411" electricity_abs="0"/>
    </tripinfo>
    <tripinfo id="carIn60260:1" depart="57606.00" departLane="315358254#0_1" departPos="5.10" departSpeed="0.00" departDelay="0.90" arrival="57659.00" arrivalLane="399835085#1_1" arrivalPos="212.23" arrivalSpeed="7.27" duration="53.00" routeLength="430.98" waitingTime="0.00" waitingCount="0" stopTime="0.00" timeLoss="7.60" rerouteNo="1" devices="tripinfo_carIn60260:1 routing_carIn60260:1 emissions_carIn60260:1" vType="default_016" speedFactor="1.02" vaporized="">
        <emissions CO_abs="2291.164509" CO2_abs="116813.973044" HC_abs="13.133279" PMx_abs="1.941401" NOx_abs="47.487641" fuel_abs="50.213887" electricity_abs="0"/>
    </tripinfo>
    <tripinfo id="carIn53971:1" depart="57640.00" departLane="272042143_1" departPos="5.10" departSpeed="0.00" departDelay="0.80" arrival="57696.00" arrivalLane="24634414#1_1" arrivalPos="162.19" arrivalSpeed="7.63" duration="56.00" routeLength="493.04" waitingTime="0.00" waitingCount="0" stopTime="0.00" timeLoss="8.73" rerouteNo="1" devices="tripinfo_carIn53971:1 routing_carIn53971:1 emissions_carIn53971:1" vType="default_016" speedFactor="0.97" vaporized="">
        <emissions CO_abs="2388.382545" CO2_abs="131583.269129" HC_abs="13.929179" PMx_abs="2.276710" NOx_abs="53.813544" fuel_abs="56.562368" electricity_abs="0"/>
    </tripinfo>
    <tripinfo id="S5R_frequency1.2" depart="57616.00" departLane="315358250#0_1" departPos="12.10" departSpeed="0.00" departDelay="4.40" arrival="57711.00" arrivalLane="386687235_1" arrivalPos="80.84" arrivalSpeed="13.64" duration="95.00" routeLength="1115.62" waitingTime="0.00" waitingCount="0" stopTime="0.00" timeLoss="13.76" rerouteNo="1" devices="tripinfo_S5R_frequency1.2 routing_S5R_frequency1.2 emissions_S5R_frequency1.2" vType="bus" speedFactor="1.00" vaporized="">
        <emissions CO_abs="1821.501147" CO2_abs="1141070.618011" HC_abs="387.431557" PMx_abs="195.478591" NOx_abs="8850.285989" fuel_abs="486.657431" electricity_abs="0"/>
    </tripinfo>
    <tripinfo id="carIn80064:1" depart="57603.00" departLane="128361109#1_1" departPos="5.10" departSpeed="0.00" departDelay="0.40" arrival="57713.00" arrivalLane="-315358254#1_1" arrivalPos="137.16" arrivalSpeed="14.08" duration="110.00" routeLength="1587.97" waitingTime="1.00" waitingCount="1" stopTime="0.00" timeLoss="25.33" rerouteNo="1" devices="tripinfo_carIn80064:1 routing_carIn80064:1 emissions_carIn80064:1" vType="default_016" speedFactor="1.06" vaporized="">
        <emissions CO_abs="6731.444570" CO2_abs="476788.787239" HC_abs="42.068272" PMx_abs="9.418487" NOx_abs="196.866830" fuel_abs="204.949526" electricity_abs="0"/>
    </tripinfo>
    <tripinfo id="h3688c1:1" depart="57625.00" departLane="201201950#1_1" departPos="5.10" departSpeed="0.00" departDelay="0.00" arrival="57721.00" arrivalLane="32978638#0_1" arrivalPos="49.29" arrivalSpeed="13.04" duration="96.00" routeLength="1089.75" waitingTime="0.00" waitingCount="0" stopTime="0.00" timeLoss="13.25" rerouteNo="1" devices="tripinfo_h3688c1:1 routing_h3688c1:1 emissions_h3688c1:1" vType="default_016" speedFactor="0.97" vaporized="">
        <emissions CO_abs="3580.603930" CO2_abs="262432.176834" HC_abs="22.454399" PMx_abs="4.411768" NOx_abs="105.307251" fuel_abs="112.808377" electricity_abs="0"/>
    </tripinfo>
    <tripinfo id="h7800c1:5" depart="57696.00" departLane="-447569998#1_1" departPos="5.10" departSpeed="0.00" departDelay="0.00" arrival="57723.00" arrivalLane="-447569998#1_1" arrivalPos="180.76" arrivalSpeed="7.16" duration="27.00" routeLength="175.66" waitingTime="0.00" waitingCount="0" stopTime="0.00" timeLoss="3.57" rerouteNo="1" devices="tripinfo_h7800c1:5 routing_h7800c1:5 emissions_h7800c1:5" vType="default_016" speedFactor="0.94" vaporized="">
        <emissions CO_abs="1344.406057" CO2_abs="54307.279169" HC_abs="7.360227" PMx_abs="0.869537" NOx_abs="22.000499" fuel_abs="23.344910" electricity_abs="0"/>
    </tripinfo>
    <tripinfo id="h12244c1:3" depart="57612.00" departLane="315358244_1" departPos="5.10" departSpeed="0.00" departDelay="0.40" arrival="57727.00" arrivalLane="386687235_1" arrivalPos="80.84" arrivalSpeed="11.36" duration="115.00" routeLength="1186.14" waitingTime="0.00" waitingCount="0" stopTime="0.00" timeLoss="10.64" rerouteNo="1" devices="tripinfo_h12244c1:3 routing_h12244c1:3 emissions_h12244c1:3" vType="default_016" speedFactor="0.83" vaporized="">
        <emissions CO_abs="3286.731956" CO2_abs="245802.745132" HC_abs="20.607691" PMx_abs="3.533564" NOx_abs="95.125554" fuel_abs="105.660915" electricity_abs="0"/>
    </tripinfo>
    <tripinfo id="h9563c2:5" depart="57631.00" departLane="315358244_1" departPos="5.10" departSpeed="0.00" departDelay="0.70" arrival="57730.00" arrivalLane="386687235_1" arrivalPos="80.84" arrivalSpeed="12.66" duration="99.00" routeLength="1186.14" waitingTime="0.00" waitingCount="0" stopTime="0.00" timeLoss="7.65" rerouteNo="1" devices="tripinfo_h9563c2:5 routing_h9563c2:5 emissions_h9563c2:5" vType="default_016" speedFactor="0.95" vaporized="">
        <emissions CO_abs="2495.164557" CO2_abs="224451.527595" HC_abs="16.558400" PMx_abs="3.338126" NOx_abs="86.621918" fuel_abs="96.482363" electricity_abs="0"/>
    </tripinfo>
    <tripinfo id="carIn30817:1" depart="57681.00" departLane="315358244_1" departPos="5.10" departSpeed="0.00" departDelay="0.20" arrival="57743.00" arrivalLane="447569997#1_1" arrivalPos="180.93" arrivalSpeed="9.02" duration="62.00" routeLength="718.04" waitingTime="0.00" waitingCount="0" stopTime="0.00" timeLoss="7.29" rerouteNo="1" devices="tripinfo_carIn30817:1 routing_carIn30817:1 emissions_carIn30817:1" vType="default_016" speedFactor="1.12" vaporized="">
        <emissions CO_abs="2072.515339" CO2_abs="156611.311729" HC_abs="13.009979" PMx_abs="2.439052" NOx_abs="61.122592" fuel_abs="67.320787" electricity_abs="0"/>
    </tripinfo>
    <tripinfo id="h317c2:1" depart="57707.00" departLane="-32978638#0_1" departPos="5.10" departSpeed="0.00" departDelay="0.10" arrival="57747.00" arrivalLane="-266565295#5_1" arrivalPos="172.76" arrivalSpeed="11.35" duration="40.00" routeLength="370.53" waitingTime="0.00" waitingCount="0" stopTime="0.00" timeLoss="9.54" rerouteNo="1" devices="tripinfo_h317c2:1 routing_h317c2:1 emissions_h317c2:1" vType="default_016" speedFactor="0.91" vaporized="">
        <emissions CO_abs="1855.142753" CO2_abs="108091.903938" HC_abs="10.973695" PMx_abs="1.868503" NOx_abs="44.045709" fuel_abs="46.464302" electricity_abs="0"/>
    </tripinfo>
    <tripinfo id="h3568c1:3" depart="57656.00" departLane="266565295#5_1" departPos="5.10" departSpeed="0.00" departDelay="0.80" arrival="57748.00" arrivalLane="-24634415_1" arrivalPos="62.03" arrivalSpeed="12.36" duration="92.00" routeLength="807.40" waitingTime="5.00" waitingCount="1" stopTime="0.00" timeLoss="22.84" rerouteNo="1" devices="tripinfo_h3568c1:3 routing_h3568c1:3 emissions_h3568c1:3" vType="default_016" speedFactor="0.94" vaporized="">
        <emissions CO_abs="4323.839937" CO2_abs="233248.580805" HC_abs="25.155389" PMx_abs="4.182829" NOx_abs="96.280989" fuel_abs="100.264070" electricity_abs="0"/>
    </tripinfo>
    <tripinfo id="h7181c1:1" depart="57660.00" departLane="315358254#0_1" departPos="5.10" departSpeed="0.00" departDelay="0.10" arrival="57752.00" arrivalLane="306240162#0_0" arrivalPos="220.43" arrivalSpeed="14.78" duration="92.00" routeLength="932.35" waitingTime="20.00" waitingCount="1" stopTime="0.00" timeLoss="35.84" rerouteNo="1" devices="tripinfo_h7181c1:1 routing_h7181c1:1 emissions_h7181c1:1" vType="default_016" speedFactor="0.92" vaporized="">
        <emissions CO_abs="6131.080465" CO2_abs="305315.689930" HC_abs="34.972243" PMx_abs="5.965390" NOx_abs="126.894048" fuel_abs="131.242640" electricity_abs="0"/>
    </tripinfo>
    <tripinfo id="carIn22761:1" depart="57616.00" departLane="-306240162#1_0" departPos="5.10" departSpeed="0.00" departDelay="2.10" arrival="57753.00" arrivalLane="399835085#1_1" arrivalPos="212.23" arrivalSpeed="8.31" duration="137.00" routeLength="1093.26" waitingTime="46.00" waitingCount="1" stopTime="0.00" timeLoss="61.61" rerouteNo="1" devices="tripinfo_carIn22761:1 routing_carIn22761:1 emissions_carIn22761:1" vType="default_016" speedFactor="1.04" vaporized="">
        <emissions CO_abs="11127.327508" CO2_abs="400575.041940" HC_abs="60.168349" PMx_abs="8.068357" NOx_abs="167.437094" fuel_abs="172.193098" electricity_abs="0"/>
    </tripinfo>
    <tripinfo id="h4538c1:1" depart="57701.00" departLane="-10427692#1_1" departPos="5.10" departSpeed="0.00" departDelay="0.00" arrival="57757.00" arrivalLane="-128361102#1_1" arrivalPos="274.68" arrivalSpeed="13.05" duration="56.00" routeLength="440.74" waitingTime="13.00" waitingCount="1" stopTime="0.00" timeLoss="23.56" rerouteNo="1" devices="tripinfo_h4538c1:1 routing_h4538c1:1 emissions_h4538c1:1" vType="default_016" speedFactor="0.99" vaporized="">
        <emissions CO_abs="2862.771267" CO2_abs="134895.299644" HC_abs="16.191311" PMx_abs="2.466257" NOx_abs="55.605765" fuel_abs="57.986274" electricity_abs="0"/>
    </tripinfo>
    <tripinfo id="carIn28951:1" depart="57606.00" departLane="10425609#0_1" departPos="5.10" departSpeed="0.00" departDelay="0.20" arrival="57762.00" arrivalLane="-128361102#1_1" arrivalPos="274.68" arrivalSpeed="15.28" duration="156.00" routeLength="2113.04" waitingTime="0.00" waitingCount="0" stopTime="0.00" timeLoss="17.93" rerouteNo="1" devices="tripinfo_carIn28951:1 routing_carIn28951:1 emissions_carIn28951:1" vType="default_016" speedFactor="1.12" vaporized="">
        <emissions CO_abs="5107.224256" CO2_abs="440452.786651" HC_abs="33.525202" PMx_abs="7.518820" NOx_abs="175.202033" fuel_abs="189.331094" electricity_abs="0"/>
    </tripinfo>
    <tripinfo id="h3326c1:2" depart="57656.00" departLane="22716069#0_1" departPos="5.10" departSpeed="0.00" departDelay="0.00" arrival="57763.00" arrivalLane="24634517#13_1" arrivalPos="111.62" arrivalSpeed="13.88" duration="107.00" routeLength="1312.81" waitingTime="0.00" waitingCount="0" stopTime="0.00" timeLoss="15.21" rerouteNo="1" devices="tripinfo_h3326c1:2 routing_h3326c1:2 emissions_h3326c1:2" vType="default_016" speedFactor="1.06" vaporized="">
        <emissions CO_abs="4367.980580" CO2_abs="332449.243268" HC_abs="27.680722" PMx_abs="5.798272" NOx_abs="134.253356" fuel_abs="142.905300" electricity_abs="0"/>
    </tripinfo>
    <tripinfo id="h645c1:1" depart="57622.00" departLane="266565295#5_1" departPos="5.10" departSpeed="0.00" departDelay="0.40" arrival="57772.00" arrivalLane="-315358244_1" arrivalPos="33.95" arrivalSpeed="15.00" duration="150.00" routeLength="1910.83" waitingTime="10.00" waitingCount="1" stopTime="0.00" timeLoss="24.77" rerouteNo="1" devices="tripinfo_h645c1:1 routing_h645c1:1 emissions_h645c1:1" vType="default_016" speedFactor="1.11" vaporized="">
        <emissions CO_abs="5782.635616" CO2_abs="408754.320824" HC_abs="35.668291" PMx_abs="6.998560" NOx_abs="162.407836" fuel_abs="175.706193" electricity_abs="0"/>
    </tripinfo>
    <tripinfo id="carIn12365:1" depart="57713.00" departLane="315358244_1" departPos="5.10" departSpeed="0.00" departDelay="0.50" arrival="57772.00" arrivalLane="447569997#1_1" arrivalPos="180.93" arrivalSpeed="9.03" duration="59.00" routeLength="718.04" waitingTime="0.00" waitingCount="0" stopTime="0.00" timeLoss="8.01" rerouteNo="1" devices="tripinfo_carIn12365:1 routing_carIn12365:1 emissions_carIn12365:1" vType="default_016" speedFactor="1.21" vaporized="">
        <emissions CO_abs="2266.011596" CO2_abs="163962.817706" HC_abs="14.121212" PMx_abs="2.832017" NOx_abs="65.747558" fuel_abs="70.480561" electricity_abs="0"/>
    </tripinfo>
    <tripinfo id="h330c1:1" depart="57736.00" departLane="-32978638#0_1" departPos="5.10" departSpeed="0.00" departDelay="0.20" arrival="57775.00" arrivalLane="-266565295#5_1" arrivalPos="172.76" arrivalSpeed="12.67" duration="39.00" routeLength="370.53" waitingTime="2.00" waitingCount="1" stopTime="0.00" timeLoss="11.79" rerouteNo="1" devices="tripinfo_h330c1:1 routing_h330c1:1 emissions_h330c1:1" vType="default_016" speedFactor="1.00" vaporized="">
        <emissions CO_abs="2069.528329" CO2_abs="117604.710273" HC_abs="12.195363" PMx_abs="2.200390" NOx_abs="48.932060" fuel_abs="50.553263" electricity_abs="0"/>
    </tripinfo>
    <tripinfo id="carIn27009:1" depart="57673.00" departLane="-447569998#1_1" departPos="5.10" departSpeed="0.00" departDelay="0.50" arrival="57782.00" arrivalLane="-26677539_1" arrivalPos="152.75" arrivalSpeed="6.16" duration="109.00" routeLength="699.63" waitingTime="0.00" waitingCount="0" stopTime="0.00" timeLoss="13.94" rerouteNo="1" devices="tripinfo_carIn27009:1 routing_carIn27009:1 emissions_carIn27009:1" vType="default_015" speedFactor="0.88" vaporized="">
        <emissions CO_abs="4808.276177" CO2_abs="197309.095858" HC_abs="26.401506" PMx_abs="3.195520" NOx_abs="80.295388" fuel_abs="84.816546" electricity_abs="0"/>
    </tripinfo>
    <tripinfo id="carIn86816:1" depart="57617.00" departLane="128361102#0_1" departPos="5.10" departSpeed="0.00" departDelay="0.80" arrival="57784.00" arrivalLane="201956811#0_1" arrivalPos="40.40" arrivalSpeed="12.82" duration="167.00" routeLength="2067.33" waitingTime="0.00" waitingCount="0" stopTime="0.00" timeLoss="16.68" rerouteNo="1" devices="tripinfo_carIn86816:1 routing_carIn86816:1 emissions_carIn86816:1" vType="default_016" speedFactor="1.00" vaporized="">
        <emissions CO_abs="4770.396102" CO2_abs="426433.077396" HC_abs="31.574790" PMx_abs="6.735387" NOx_abs="166.899796" fuel_abs="183.305248" electricity_abs="0"/>
    </tripinfo>
    <tripinfo id="carIn118591:1" depart="57689.00" departLane="315358244_1" departPos="5.10" departSpeed="0.00" departDelay="0.20" arrival="57784.00" arrivalLane="386687235_1" arrivalPos="80.84" arrivalSpeed="13.26" duration="95.00" routeLength="1186.14" waitingTime="0.00" waitingCount="0" stopTime="0.00" timeLoss="7.46" rerouteNo="1" devices="tripinfo_carIn118591:1 routing_carIn118591:1 emissions_carIn118591:1" vType="default_016" speedFactor="0.99" vaporized="">
        <emissions CO_abs="2443.815670" CO2_abs="224671.149519" HC_abs="16.341942" PMx_abs="3.443799" NOx_abs="87.166492" fuel_abs="96.576586" electricity_abs="0"/>
    </tripinfo>
    <tripinfo id="h11737c1:1" depart="57665.00" departLane="272042143_1" departPos="5.10" departSpeed="0.00" departDelay="1.50" arrival="57785.00" arrivalLane="-315358254#1_1" arrivalPos="137.16" arrivalSpeed="15.46" duration="120.00" routeLength="1596.88" waitingTime="2.00" waitingCount="1" stopTime="0.00" timeLoss="19.61" rerouteNo="1" devices="tripinfo_h11737c1:1 routing_h11737c1:1 emissions_h11737c1:1" vType="default_016" speedFactor="1.16" vaporized="">
        <emissions CO_abs="4434.609106" CO2_abs="359795.611719" HC_abs="28.519528" PMx_abs="6.317074" NOx_abs="144.073021" fuel_abs="154.660115" electricity_abs="0"/>
    </tripinfo>
    <tripinfo id="carIn50326:1" depart="57651.00" departLane="128361102#0_1" departPos="5.10" departSpeed="0.00" departDelay="0.30" arrival="57787.00" arrivalLane="18809673#0_1" arrivalPos="473.56" arrivalSpeed="16.07" duration="136.00" routeLength="1591.07" waitingTime="3.00" waitingCount="1" stopTime="0.00" timeLoss="24.63" rerouteNo="1" devices="tripinfo_carIn50326:1 routing_carIn50326:1 emissions_carIn50326:1" vType="default_016" speedFactor="1.16" vaporized="">
        <emissions CO_abs="5405.912006" CO2_abs="388273.678047" HC_abs="33.693558" PMx_abs="6.709867" NOx_abs="156.194494" fuel_abs="166.902144" electricity_abs="0"/>
    </tripinfo>
    <tripinfo id="h5979c1:5" depart="57669.00" departLane="399835085#1_1" departPos="5.10" departSpeed="0.00" departDelay="0.00" arrival="57787.00" arrivalLane="-315358254#1_1" arrivalPos="137.16" arrivalSpeed="17.67" duration="118.00" routeLength="659.33" waitingTime="30.00" waitingCount="1" stopTime="0.00" timeLoss="60.28" rerouteNo="1" devices="tripinfo_h5979c1:5 routing_h5979c1:5 emissions_h5979c1:5" vType="default_016" speedFactor="1.27" vaporized="">
        <emissions CO_abs="8847.200720" CO2_abs="294683.820261" HC_abs="47.180227" PMx_abs="5.782345" NOx_abs="125.166484" fuel_abs="126.674681" electricity_abs="0"/>
    </tripinfo>
    <tripinfo id="h3154c1:1" depart="57658.00" departLane="24634507_1" departPos="5.10" departSpeed="0.00" departDelay="0.00" arrival="57788.00" arrivalLane="-266565295#5_1" arrivalPos="172.76" arrivalSpeed="12.59" duration="130.00" routeLength="1206.22" waitingTime="8.00" waitingCount="2" stopTime="0.00" timeLoss="35.07" rerouteNo="1" devices="tripinfo_h3154c1:1 routing_h3154c1:1 emissions_h3154c1:1" vType="default_016" speedFactor="0.94" vaporized="">
        <emissions CO_abs="5405.606277" CO2_abs="341617.754344" HC_abs="32.602114" PMx_abs="5.816595" NOx_abs="138.195142" fuel_abs="146.847331" electricity_abs="0"/>
    </tripinfo>
    <tripinfo id="carIn107282:1" depart="57749.00" departLane="-447569998#1_1" departPos="5.10" departSpeed="0.00" departDelay="0.00" arrival="57801.00" arrivalLane="315358242#0_1" arrivalPos="165.37" arrivalSpeed="11.38" duration="52.00" routeLength="448.50" waitingTime="0.00" waitingCount="0" stopTime="0.00" timeLoss="5.36" rerouteNo="1" devices="tripinfo_carIn107282:1 routing_carIn107282:1 emissions_carIn107282:1" vType="default_016" speedFactor="0.90" vaporized="">
        <emissions CO_abs="1998.425562" CO2_abs="110217.322399" HC_abs="11.629495" PMx_abs="1.693559" NOx_abs="43.689864" fuel_abs="47.378332" electricity_abs="0"/>
    </tripinfo>
    <tripinfo id="carIn48184:1" depart="57613.00" departLane="-306240162#1_0" departPos="5.10" departSpeed="0.00" departDelay="0.70" arrival="57804.00" arrivalLane="386687235_1" arrivalPos="80.84" arrivalSpeed="13.56" duration="191.00" routeLength="2257.41" waitingTime="17.00" waitingCount="2" stopTime="0.00" timeLoss="44.50" rerouteNo="1" devices="tripinfo_carIn48184:1 routing_carIn48184:1 emissions_carIn48184:1" vType="default_016" speedFactor="1.02" vaporized="">
        <emissions CO_abs="8761.042462" CO2_abs="529736.138929" HC_abs="52.254274" PMx_abs="9.664812" NOx_abs="215.145801" fuel_abs="227.711285" electricity_abs="0"/>
    </tripinfo>
    <tripinfo id="carIn82278:1" depart="57702.00" departLane="-306240162#1_0" departPos="5.10" departSpeed="0.00" departDelay="0.70" arrival="57804.00" arrivalLane="399835085#1_1" arrivalPos="212.23" arrivalSpeed="7.88" duration="102.00" routeLength="1093.26" waitingTime="8.00" waitingCount="1" stopTime="0.00" timeLoss="22.30" rerouteNo="1" devices="tripinfo_carIn82278:1 routing_carIn82278:1 emissions_carIn82278:1" vType="default_016" speedFactor="0.98" vaporized="">
        <emissions CO_abs="4880.640189" CO2_abs="270658.883992" HC_abs="28.599265" PMx_abs="5.111401" NOx_abs="111.312349" fuel_abs="116.344932" electricity_abs="0"/>
    </tripinfo>
    <tripinfo id="carIn82220:1" depart="57619.00" departLane="-306240162#1_0" departPos="5.10" departSpeed="0.00" departDelay="3.50" arrival="57806.00" arrivalLane="386687235_1" arrivalPos="80.84" arrivalSpeed="11.97" duration="187.00" routeLength="2257.41" waitingTime="4.00" waitingCount="1" stopTime="0.00" timeLoss="28.29" rerouteNo="1" devices="tripinfo_carIn82220:1 routing_carIn82220:1 emissions_carIn82220:1" vType="default_016" speedFactor="0.93" vaporized="">
        <emissions CO_abs="6451.965470" CO2_abs="493064.870427" HC_abs="40.892650" PMx_abs="8.383784" NOx_abs="196.917100" fuel_abs="211.947279" electricity_abs="0"/>
    </tripinfo>
    <tripinfo id="carIn116184:1" depart="57627.00" departLane="-306240162#1_0" departPos="5.10" departSpeed="0.00" departDelay="0.10" arrival="57806.00" arrivalLane="386687235_2" arrivalPos="80.84" arrivalSpeed="13.89" duration="179.00" routeLength="2257.41" waitingTime="3.00" waitingCount="1" stopTime="0.00" timeLoss="33.47" rerouteNo="1" devices="tripinfo_carIn116184:1 routing_carIn116184:1 emissions_carIn116184:1" vType="default_016" speedFactor="1.02" vaporized="">
        <emissions CO_abs="6620.722850" CO2_abs="498713.138800" HC_abs="41.941994" PMx_abs="8.781011" NOx_abs="200.023623" fuel_abs="214.374975" electricity_abs="0"/>
    </tripinfo>
    <tripinfo id="carIn46110:1" depart="57684.00" departLane="315358244_1" departPos="5.10" departSpeed="0.00" departDelay="1.20" arrival="57807.00" arrivalLane="32978638#0_1" arrivalPos="49.29" arrivalSpeed="16.24" duration="123.00" routeLength="1764.04" waitingTime="2.00" waitingCount="1" stopTime="0.00" timeLoss="17.06" rerouteNo="1" devices="tripinfo_carIn46110:1 routing_carIn46110:1 emissions_carIn46110:1" vType="default_016" speedFactor="1.21" vaporized="">
        <emissions CO_abs="4203.398056" CO2_abs="357864.358741" HC_abs="27.432693" PMx_abs="6.282250" NOx_abs="142.332720" fuel_abs="153.829877" electricity_abs="0"/>
    </tripinfo>
    <tripinfo id="carIn462:1" depart="57622.00" departLane="-306240162#1_0" departPos="5.10" departSpeed="0.00" departDelay="4.80" arrival="57808.00" arrivalLane="386687235_1" arrivalPos="80.84" arrivalSpeed="13.47" duration="186.00" routeLength="2257.41" waitingTime="4.00" waitingCount="2" stopTime="0.00" timeLoss="34.63" rerouteNo="1" devices="tripinfo_carIn462:1 routing_carIn462:1 emissions_carIn462:1" vType="default_016" speedFactor="0.98" vaporized="">
        <emissions CO_abs="6624.314848" CO2_abs="495229.003090" HC_abs="41.823153" PMx_abs="8.640924" NOx_abs="198.905374" fuel_abs="212.877374" electricity_abs="0"/>
    </tripinfo>
    <tripinfo id="carIn12858:1" depart="57661.00" departLane="128361109#1_1" departPos="5.10" departSpeed="0.00" departDelay="0.90" arrival="57811.00" arrivalLane="399835085#1_1" arrivalPos="212.23" arrivalSpeed="8.37" duration="150.00" routeLength="1738.12" waitingTime="12.00" waitingCount="1" stopTime="0.00" timeLoss="37.48" rerouteNo="1" devices="tripinfo_carIn12858:1 routing_carIn12858:1 emissions_carIn12858:1" vType="default_016" speedFactor="1.02" vaporized="">
        <emissions CO_abs="8223.939513" CO2_abs="488108.402346" HC_abs="49.104451" PMx_abs="9.470332" NOx_abs="201.687102" fuel_abs="209.816590" electricity_abs="0"/>
    </tripinfo>
    <tripinfo id="carIn126288:1" depart="57674.00" departLane="272042143_1" departPos="5.10" departSpeed="0.00" departDelay="0.00" arrival="57817.00" arrivalLane="-315358254#1_1" arrivalPos="137.16" arrivalSpeed="12.86" duration="143.00" routeLength="1596.88" waitingTime="2.00" waitingCount="1" stopTime="0.00" timeLoss="17.73" rerouteNo="1" devices="tripinfo_carIn126288:1 routing_carIn126288:1 emissions_carIn126288:1" vType="default_016" speedFactor="0.93" vaporized="">
        <emissions CO_abs="4355.336904" CO2_abs="331501.675506" HC_abs="27.565647" PMx_abs="5.359874" NOx_abs="131.594903" fuel_abs="142.498590" electricity_abs="0"/>
    </tripinfo>
    <tripinfo id="carIn12152:1" depart="57647.00" departLane="24599188#0.94_1" departPos="5.10" departSpeed="0.00" departDelay="0.50" arrival="57819.00" arrivalLane="-315358254#1_1" arrivalPos="137.16" arrivalSpeed="13.35" duration="172.00" routeLength="2034.31" waitingTime="0.00" waitingCount="0" stopTime="0.00" timeLoss="17.48" rerouteNo="1" devices="tripinfo_carIn12152:1 routing_carIn12152:1 emissions_carIn12152:1" vType="default_016" speedFactor="1.03" vaporized="">
        <emissions CO_abs="5187.450945" CO2_abs="427600.899021" HC_abs="33.529747" PMx_abs="6.766754" NOx_abs="167.716961" fuel_abs="183.807549" electricity_abs="0"/>
    </tripinfo>
    <tripinfo id="h17600c1:1" depart="57662.00" departLane="272042143_1" departPos="5.10" departSpeed="0.00" departDelay="0.30" arrival="57819.00" arrivalLane="201238729#3_1" arrivalPos="431.02" arrivalSpeed="14.43" duration="157.00" routeLength="2100.26" waitingTime="0.00" waitingCount="0" stopTime="0.00" timeLoss="12.62" rerouteNo="1" devices="tripinfo_h17600c1:1 routing_h17600c1:1 emissions_h17600c1:1" vType="default_016" speedFactor="1.05" vaporized="">
        <emissions CO_abs="3303.464040" CO2_abs="366758.311484" HC_abs="23.370767" PMx_abs="5.351967" NOx_abs="139.026422" fuel_abs="157.653774" electricity_abs="0"/>
    </tripinfo>
    <tripinfo id="h17549c1:1" depart="57680.00" departLane="-447569998#1_1" departPos="5.10" departSpeed="0.00" departDelay="0.00" arrival="57822.00" arrivalLane="-315358254#1_1" arrivalPos="137.16" arrivalSpeed="14.66" duration="142.00" routeLength="1746.60" waitingTime="0.00" waitingCount="0" stopTime="0.00" timeLoss="15.45" rerouteNo="1" devices="tripinfo_h17549c1:1 routing_h17549c1:1 emissions_h17549c1:1" vType="default_016" speedFactor="1.08" vaporized="">
        <emissions CO_abs="4529.527939" CO2_abs="373800.883687" HC_abs="29.231886" PMx_abs="6.023523" NOx_abs="146.982039" fuel_abs="160.681046" electricity_abs="0"/>
    </tripinfo>
    <tripinfo id="carIn31257:1" depart="57630.00" departLane="-306240162#1_0" departPos="5.10" departSpeed="0.00" departDelay="1.60" arrival="57824.00" arrivalLane="386687235_1" arrivalPos="80.84" arrivalSpeed="13.15" duration="194.00" routeLength="2257.41" waitingTime="12.00" waitingCount="2" stopTime="0.00" timeLoss="49.36" rerouteNo="1" devices="tripinfo_carIn31257:1 routing_carIn31257:1 emissions_carIn31257:1" vType="default_016" speedFactor="1.03" vaporized="">
        <emissions CO_abs="8929.633635" CO2_abs="574188.095586" HC_abs="54.212049" PMx_abs="10.545444" NOx_abs="234.082706" fuel_abs="246.818700" electricity_abs="0"/>
    </tripinfo>
    <tripinfo id="carIn101568:1" depart="57638.00" departLane="-306240162#1_0" departPos="5.10" departSpeed="0.00" departDelay="0.50" arrival="57824.00" arrivalLane="386687235_2" arrivalPos="80.84" arrivalSpeed="12.44" duration="186.00" routeLength="2257.41" waitingTime="2.00" waitingCount="1" stopTime="0.00" timeLoss="29.87" rerouteNo="1" devices="tripinfo_carIn101568:1 routing_carIn101568:1 emissions_carIn101568:1" vType="default_016" speedFactor="0.95" vaporized="">
        <emissions CO_abs="6429.429075" CO2_abs="505965.928149" HC_abs="41.113880" PMx_abs="8.491250" NOx_abs="200.582067" fuel_abs="217.492978" electricity_abs="0"/>
    </tripinfo>
    <tripinfo id="carIn129809:1" depart="57729.00" departLane="-447569998#1_1" departPos="5.10" departSpeed="0.00" departDelay="1.00" arrival="57824.00" arrivalLane="-315358244_1" arrivalPos="33.95" arrivalSpeed="11.92" duration="95.00" routeLength="706.49" waitingTime="12.00" waitingCount="2" stopTime="0.00" timeLoss="25.90" rerouteNo="1" devices="tripinfo_carIn129809:1 routing_carIn129809:1 emissions_carIn129809:1" vType="default_015" speedFactor="0.87" vaporized="">
        <emissions CO_abs="4100.218965" CO2_abs="202353.477071" HC_abs="23.360139" PMx_abs="3.416108" NOx_abs="82.231289" fuel_abs="86.984138" electricity_abs="0"/>
    </tripinfo>
    <tripinfo id="h5216c1:1" depart="57664.00" departLane="224892339#0_1" departPos="5.10" departSpeed="0.00" departDelay="0.00" arrival="57826.00" arrivalLane="386687235_2" arrivalPos="80.84" arrivalSpeed="14.68" duration="162.00" routeLength="1823.78" waitingTime="2.00" waitingCount="1" stopTime="0.00" timeLoss="41.86" rerouteNo="1" devices="tripinfo_h5216c1:1 routing_h5216c1:1 emissions_h5216c1:1" vType="default_016" speedFactor="1.08" vaporized="">
        <emissions CO_abs="6883.133771" CO2_abs="487863.718665" HC_abs="42.728419" PMx_abs="8.577841" NOx_abs="197.802790" fuel_abs="209.711400" electricity_abs="0"/>
    </tripinfo>
    <tripinfo id="h16072c2:3" depart="57663.00" departLane="315358254#0_1" departPos="5.10" departSpeed="0.00" departDelay="2.50" arrival="57827.00" arrivalLane="386687235_1" arrivalPos="80.84" arrivalSpeed="11.34" duration="164.00" routeLength="1611.92" waitingTime="5.00" waitingCount="2" stopTime="0.00" timeLoss="30.60" rerouteNo="1" devices="tripinfo_h16072c2:3 routing_h16072c2:3 emissions_h16072c2:3" vType="default_016" speedFactor="0.88" vaporized="">
        <emissions CO_abs="5422.695936" CO2_abs="356983.217513" HC_abs="32.972153" PMx_abs="5.695712" NOx_abs="141.950621" fuel_abs="153.452697" electricity_abs="0"/>
    </tripinfo>