<?xml version="1.0" encoding="UTF-8"?>

<!-- generated on 2021-10-26 12:23:01 by Eclipse SUMO sumo Version 1.10.0
<configuration xmlns:xsi="http://www.w3.org/2001/XMLSchema-instance" xsi:noNamespaceSchemaLocation="http://sumo.dlr.de/xsd/sumoConfiguration.xsd">

    <input>
        <net-file value="/Users/behradkoohy/sumo-scratchpad/RESCO/environments/ingolstadt21/ingolstadt21.net.xml"/>
        <route-files value="/Users/behradkoohy/sumo-scratchpad/RESCO/environments/ingolstadt21/ingolstadt21.rou.xml"/>
    </input>

    <output>
        <tripinfo-output value="/Users/behradkoohy/sumo-scratchpad/RESCO/logs/MAXWAVE-tr0-ingolstadt21-21-wave-wait/tripinfo_95.xml"/>
        <tripinfo-output.write-unfinished value="true"/>
    </output>

    <time>
        <begin value="57600"/>
        <end value="61200"/>
    </time>

    <processing>
        <time-to-teleport value="-1"/>
    </processing>

    <report>
        <no-warnings value="true"/>
        <no-step-log value="true"/>
    </report>

    <emissions>
        <device.emissions.probability value="1"/>
    </emissions>

    <traci_server>
        <remote-port value="58205"/>
    </traci_server>

    <random_number>
        <random value="true"/>
    </random_number>

</configuration>
-->

<tripinfos xmlns:xsi="http://www.w3.org/2001/XMLSchema-instance" xsi:noNamespaceSchemaLocation="http://sumo.dlr.de/xsd/tripinfo_file.xsd">
    <tripinfo id="carIn60260:1" depart="57606.00" departLane="315358254#0_1" departPos="5.10" departSpeed="0.00" departDelay="0.90" arrival="57660.00" arrivalLane="399835085#1_1" arrivalPos="212.23" arrivalSpeed="6.89" duration="54.00" routeLength="430.98" waitingTime="0.00" waitingCount="0" stopTime="0.00" timeLoss="6.37" rerouteNo="1" devices="tripinfo_carIn60260:1 routing_carIn60260:1 emissions_carIn60260:1" vType="default_016" speedFactor="0.96" vaporized="">
        <emissions CO_abs="2168.841618" CO2_abs="110357.036045" HC_abs="12.422271" PMx_abs="1.810994" NOx_abs="44.723673" fuel_abs="47.438333" electricity_abs="0"/>
    </tripinfo>
    <tripinfo id="h15454c2:3" depart="57612.00" departLane="24608844_1" departPos="5.10" departSpeed="0.00" departDelay="0.50" arrival="57660.00" arrivalLane="32978638#0_1" arrivalPos="49.29" arrivalSpeed="11.88" duration="48.00" routeLength="354.79" waitingTime="2.00" waitingCount="1" stopTime="0.00" timeLoss="9.85" rerouteNo="1" devices="tripinfo_h15454c2:3 routing_h15454c2:3 emissions_h15454c2:3" vType="default_016" speedFactor="0.90" vaporized="">
        <emissions CO_abs="2354.989535" CO2_abs="111918.022919" HC_abs="13.325722" PMx_abs="1.968621" NOx_abs="46.269210" fuel_abs="48.109267" electricity_abs="0"/>
    </tripinfo>
    <tripinfo id="carIn53971:1" depart="57640.00" departLane="272042143_1" departPos="5.10" departSpeed="0.00" departDelay="0.80" arrival="57697.00" arrivalLane="24634414#1_1" arrivalPos="162.19" arrivalSpeed="6.71" duration="57.00" routeLength="493.04" waitingTime="0.00" waitingCount="0" stopTime="0.00" timeLoss="9.02" rerouteNo="1" devices="tripinfo_carIn53971:1 routing_carIn53971:1 emissions_carIn53971:1" vType="default_016" speedFactor="0.96" vaporized="">
        <emissions CO_abs="2523.376429" CO2_abs="137667.667867" HC_abs="14.675643" PMx_abs="2.257082" NOx_abs="55.537028" fuel_abs="59.178017" electricity_abs="0"/>
    </tripinfo>
    <tripinfo id="h12244c1:3" depart="57612.00" departLane="315358244_1" departPos="5.10" departSpeed="0.00" departDelay="0.40" arrival="57701.00" arrivalLane="386687235_1" arrivalPos="80.84" arrivalSpeed="14.73" duration="89.00" routeLength="1186.14" waitingTime="0.00" waitingCount="0" stopTime="0.00" timeLoss="6.88" rerouteNo="1" devices="tripinfo_h12244c1:3 routing_h12244c1:3 emissions_h12244c1:3" vType="default_016" speedFactor="1.06" vaporized="">
        <emissions CO_abs="2330.009194" CO2_abs="236512.914772" HC_abs="16.025056" PMx_abs="3.608102" NOx_abs="90.785391" fuel_abs="101.666750" electricity_abs="0"/>
    </tripinfo>
    <tripinfo id="S5R_frequency1.2" depart="57615.00" departLane="315358250#0_1" departPos="12.10" departSpeed="0.00" departDelay="3.40" arrival="57709.00" arrivalLane="386687235_1" arrivalPos="80.84" arrivalSpeed="13.43" duration="94.00" routeLength="1115.62" waitingTime="0.00" waitingCount="0" stopTime="0.00" timeLoss="13.07" rerouteNo="1" devices="tripinfo_S5R_frequency1.2 routing_S5R_frequency1.2 emissions_S5R_frequency1.2" vType="bus" speedFactor="1.00" vaporized="">
        <emissions CO_abs="1932.411311" CO2_abs="1228716.804643" HC_abs="407.035903" PMx_abs="207.605479" NOx_abs="9484.484839" fuel_abs="524.040791" electricity_abs="0"/>
    </tripinfo>
    <tripinfo id="h9563c2:5" depart="57631.00" departLane="315358244_1" departPos="5.10" departSpeed="0.00" departDelay="0.70" arrival="57718.00" arrivalLane="386687235_1" arrivalPos="80.84" arrivalSpeed="14.98" duration="87.00" routeLength="1186.14" waitingTime="0.00" waitingCount="0" stopTime="0.00" timeLoss="7.96" rerouteNo="1" devices="tripinfo_h9563c2:5 routing_h9563c2:5 emissions_h9563c2:5" vType="default_016" speedFactor="1.09" vaporized="">
        <emissions CO_abs="2437.977750" CO2_abs="221978.352138" HC_abs="16.213751" PMx_abs="3.654278" NOx_abs="87.282367" fuel_abs="95.418733" electricity_abs="0"/>
    </tripinfo>
    <tripinfo id="h3688c1:1" depart="57625.00" departLane="201201950#1_1" departPos="5.10" departSpeed="0.00" departDelay="0.00" arrival="57720.00" arrivalLane="32978638#0_1" arrivalPos="49.29" arrivalSpeed="14.14" duration="95.00" routeLength="1089.75" waitingTime="5.00" waitingCount="1" stopTime="0.00" timeLoss="18.06" rerouteNo="1" devices="tripinfo_h3688c1:1 routing_h3688c1:1 emissions_h3688c1:1" vType="default_016" speedFactor="1.04" vaporized="">
        <emissions CO_abs="3623.185305" CO2_abs="267974.640988" HC_abs="22.782025" PMx_abs="4.657911" NOx_abs="108.185661" fuel_abs="115.190612" electricity_abs="0"/>
    </tripinfo>
    <tripinfo id="h7800c1:5" depart="57696.00" departLane="-447569998#1_1" departPos="5.10" departSpeed="0.00" departDelay="0.00" arrival="57722.00" arrivalLane="-447569998#1_1" arrivalPos="180.76" arrivalSpeed="7.91" duration="26.00" routeLength="175.66" waitingTime="0.00" waitingCount="0" stopTime="0.00" timeLoss="3.69" rerouteNo="1" devices="tripinfo_h7800c1:5 routing_h7800c1:5 emissions_h7800c1:5" vType="default_016" speedFactor="0.96" vaporized="">
        <emissions CO_abs="1210.572767" CO2_abs="49423.187060" HC_abs="6.642296" PMx_abs="0.804454" NOx_abs="20.111040" fuel_abs="21.245368" electricity_abs="0"/>
    </tripinfo>
    <tripinfo id="carIn80064:1" depart="57603.00" departLane="128361109#1_1" departPos="5.10" departSpeed="0.00" departDelay="0.40" arrival="57739.00" arrivalLane="-315358254#1_1" arrivalPos="137.16" arrivalSpeed="11.50" duration="136.00" routeLength="1587.97" waitingTime="9.00" waitingCount="2" stopTime="0.00" timeLoss="35.29" rerouteNo="1" devices="tripinfo_carIn80064:1 routing_carIn80064:1 emissions_carIn80064:1" vType="default_016" speedFactor="0.88" vaporized="">
        <emissions CO_abs="6178.065093" CO2_abs="416858.701595" HC_abs="37.954439" PMx_abs="7.871510" NOx_abs="171.466051" fuel_abs="179.188963" electricity_abs="0"/>
    </tripinfo>
    <tripinfo id="h3568c1:3" depart="57656.00" departLane="266565295#5_1" departPos="5.10" departSpeed="0.00" departDelay="0.80" arrival="57745.00" arrivalLane="-24634415_1" arrivalPos="62.03" arrivalSpeed="13.83" duration="89.00" routeLength="807.40" waitingTime="9.00" waitingCount="1" stopTime="0.00" timeLoss="27.43" rerouteNo="1" devices="tripinfo_h3568c1:3 routing_h3568c1:3 emissions_h3568c1:3" vType="default_016" speedFactor="1.05" vaporized="">
        <emissions CO_abs="4928.722569" CO2_abs="256522.711763" HC_abs="28.422622" PMx_abs="4.741753" NOx_abs="106.270323" fuel_abs="110.268647" electricity_abs="0"/>
    </tripinfo>
    <tripinfo id="h317c2:1" depart="57707.00" departLane="-32978638#0_1" departPos="5.10" departSpeed="0.00" departDelay="0.10" arrival="57746.00" arrivalLane="-266565295#5_1" arrivalPos="172.76" arrivalSpeed="12.69" duration="39.00" routeLength="370.53" waitingTime="2.00" waitingCount="1" stopTime="0.00" timeLoss="10.23" rerouteNo="1" devices="tripinfo_h317c2:1 routing_h317c2:1 emissions_h317c2:1" vType="default_016" speedFactor="0.97" vaporized="">
        <emissions CO_abs="1974.463232" CO2_abs="115044.874549" HC_abs="11.699074" PMx_abs="2.084296" NOx_abs="47.423583" fuel_abs="49.452962" electricity_abs="0"/>
    </tripinfo>
    <tripinfo id="carIn22761:1" depart="57616.00" departLane="-306240162#1_0" departPos="5.10" departSpeed="0.00" departDelay="2.10" arrival="57747.00" arrivalLane="399835085#1_1" arrivalPos="212.23" arrivalSpeed="7.45" duration="131.00" routeLength="1093.26" waitingTime="32.00" waitingCount="1" stopTime="0.00" timeLoss="46.47" rerouteNo="1" devices="tripinfo_carIn22761:1 routing_carIn22761:1 emissions_carIn22761:1" vType="default_016" speedFactor="0.92" vaporized="">
        <emissions CO_abs="8734.504090" CO2_abs="336855.287579" HC_abs="47.666833" PMx_abs="6.542621" NOx_abs="140.300659" fuel_abs="144.801937" electricity_abs="0"/>
    </tripinfo>
    <tripinfo id="h7181c1:1" depart="57660.00" departLane="315358254#0_1" departPos="5.10" departSpeed="0.00" departDelay="0.10" arrival="57751.00" arrivalLane="306240162#0_0" arrivalPos="220.43" arrivalSpeed="16.13" duration="91.00" routeLength="932.35" waitingTime="29.00" waitingCount="1" stopTime="0.00" timeLoss="41.20" rerouteNo="1" devices="tripinfo_h7181c1:1 routing_h7181c1:1 emissions_h7181c1:1" vType="default_016" speedFactor="1.03" vaporized="">
        <emissions CO_abs="7512.078032" CO2_abs="294708.879200" HC_abs="41.201217" PMx_abs="6.122822" NOx_abs="124.264233" fuel_abs="126.684105" electricity_abs="0"/>
    </tripinfo>
    <tripinfo id="h4538c1:1" depart="57701.00" departLane="-10427692#1_1" departPos="5.10" departSpeed="0.00" departDelay="0.00" arrival="57755.00" arrivalLane="-128361102#1_1" arrivalPos="274.68" arrivalSpeed="14.34" duration="54.00" routeLength="440.74" waitingTime="14.00" waitingCount="1" stopTime="0.00" timeLoss="23.60" rerouteNo="1" devices="tripinfo_h4538c1:1 routing_h4538c1:1 emissions_h4538c1:1" vType="default_016" speedFactor="1.06" vaporized="">
        <emissions CO_abs="2981.204560" CO2_abs="129768.294183" HC_abs="16.597209" PMx_abs="2.403002" NOx_abs="53.531422" fuel_abs="55.782534" electricity_abs="0"/>
    </tripinfo>
    <tripinfo id="carIn30817:1" depart="57681.00" departLane="315358244_1" departPos="5.10" departSpeed="0.00" departDelay="0.20" arrival="57759.00" arrivalLane="447569997#1_1" arrivalPos="180.93" arrivalSpeed="6.12" duration="78.00" routeLength="718.04" waitingTime="0.00" waitingCount="0" stopTime="0.00" timeLoss="7.73" rerouteNo="1" devices="tripinfo_carIn30817:1 routing_carIn30817:1 emissions_carIn30817:1" vType="default_016" speedFactor="0.87" vaporized="">
        <emissions CO_abs="2782.462996" CO2_abs="166264.345786" HC_abs="16.535895" PMx_abs="2.770975" NOx_abs="67.231317" fuel_abs="71.470343" electricity_abs="0"/>
    </tripinfo>
    <tripinfo id="h5979c1:5" depart="57669.00" departLane="399835085#1_1" departPos="5.10" departSpeed="0.00" departDelay="0.00" arrival="57761.00" arrivalLane="-315358254#1_1" arrivalPos="137.16" arrivalSpeed="13.41" duration="92.00" routeLength="659.33" waitingTime="5.00" waitingCount="1" stopTime="0.00" timeLoss="22.46" rerouteNo="1" devices="tripinfo_h5979c1:5 routing_h5979c1:5 emissions_h5979c1:5" vType="default_016" speedFactor="1.05" vaporized="">
        <emissions CO_abs="3982.294452" CO2_abs="188882.628588" HC_abs="22.479380" PMx_abs="3.201963" NOx_abs="77.213168" fuel_abs="81.193597" electricity_abs="0"/>
    </tripinfo>
    <tripinfo id="h645c1:1" depart="57622.00" departLane="266565295#5_1" departPos="5.10" departSpeed="0.00" departDelay="0.40" arrival="57762.00" arrivalLane="-315358244_1" arrivalPos="33.95" arrivalSpeed="15.68" duration="140.00" routeLength="1910.83" waitingTime="2.00" waitingCount="1" stopTime="0.00" timeLoss="16.63" rerouteNo="1" devices="tripinfo_h645c1:1 routing_h645c1:1 emissions_h645c1:1" vType="default_016" speedFactor="1.13" vaporized="">
        <emissions CO_abs="3994.071293" CO2_abs="373249.502236" HC_abs="26.699377" PMx_abs="6.087216" NOx_abs="145.675946" fuel_abs="160.443604" electricity_abs="0"/>
    </tripinfo>
    <tripinfo id="h3326c1:2" depart="57656.00" departLane="22716069#0_1" departPos="5.10" departSpeed="0.00" departDelay="0.00" arrival="57764.00" arrivalLane="24634517#13_1" arrivalPos="111.62" arrivalSpeed="13.55" duration="108.00" routeLength="1312.81" waitingTime="0.00" waitingCount="0" stopTime="0.00" timeLoss="15.75" rerouteNo="1" devices="tripinfo_h3326c1:2 routing_h3326c1:2 emissions_h3326c1:2" vType="default_016" speedFactor="1.06" vaporized="">
        <emissions CO_abs="4046.912624" CO2_abs="299017.881958" HC_abs="25.415394" PMx_abs="5.302270" NOx_abs="121.490093" fuel_abs="128.534573" electricity_abs="0"/>
    </tripinfo>
    <tripinfo id="carIn86816:1" depart="57617.00" departLane="128361102#0_1" departPos="5.10" departSpeed="0.00" departDelay="0.80" arrival="57771.00" arrivalLane="201956811#0_1" arrivalPos="40.40" arrivalSpeed="15.35" duration="154.00" routeLength="2067.33" waitingTime="2.00" waitingCount="1" stopTime="0.00" timeLoss="24.26" rerouteNo="1" devices="tripinfo_carIn86816:1 routing_carIn86816:1 emissions_carIn86816:1" vType="default_016" speedFactor="1.16" vaporized="">
        <emissions CO_abs="5396.908219" CO2_abs="473570.450843" HC_abs="35.230692" PMx_abs="7.979462" NOx_abs="186.522908" fuel_abs="203.567036" electricity_abs="0"/>
    </tripinfo>
    <tripinfo id="h330c1:1" depart="57736.00" departLane="-32978638#0_1" departPos="5.10" departSpeed="0.00" departDelay="0.20" arrival="57775.00" arrivalLane="-266565295#5_1" arrivalPos="172.76" arrivalSpeed="13.44" duration="39.00" routeLength="370.53" waitingTime="1.00" waitingCount="1" stopTime="0.00" timeLoss="11.20" rerouteNo="1" devices="tripinfo_h330c1:1 routing_h330c1:1 emissions_h330c1:1" vType="default_016" speedFactor="1.00" vaporized="">
        <emissions CO_abs="2127.246379" CO2_abs="123421.117209" HC_abs="12.590858" PMx_abs="2.264996" NOx_abs="51.009844" fuel_abs="53.053524" electricity_abs="0"/>
    </tripinfo>
    <tripinfo id="carIn118591:1" depart="57689.00" departLane="315358244_1" departPos="5.10" departSpeed="0.00" departDelay="0.20" arrival="57778.00" arrivalLane="386687235_1" arrivalPos="80.84" arrivalSpeed="14.51" duration="89.00" routeLength="1186.14" waitingTime="0.00" waitingCount="0" stopTime="0.00" timeLoss="8.28" rerouteNo="1" devices="tripinfo_carIn118591:1 routing_carIn118591:1 emissions_carIn118591:1" vType="default_016" speedFactor="1.07" vaporized="">
        <emissions CO_abs="2588.130861" CO2_abs="236415.205417" HC_abs="17.236145" PMx_abs="3.815367" NOx_abs="92.461120" fuel_abs="101.624615" electricity_abs="0"/>
    </tripinfo>
    <tripinfo id="carIn48184:1" depart="57613.00" departLane="-306240162#1_0" departPos="5.10" departSpeed="0.00" departDelay="0.70" arrival="57783.00" arrivalLane="386687235_1" arrivalPos="80.84" arrivalSpeed="13.19" duration="170.00" routeLength="2257.41" waitingTime="3.00" waitingCount="1" stopTime="0.00" timeLoss="26.08" rerouteNo="1" devices="tripinfo_carIn48184:1 routing_carIn48184:1 emissions_carIn48184:1" vType="default_016" speedFactor="1.03" vaporized="">
        <emissions CO_abs="6310.354303" CO2_abs="510962.244287" HC_abs="40.735210" PMx_abs="9.072803" NOx_abs="204.633014" fuel_abs="219.639869" electricity_abs="0"/>
    </tripinfo>
    <tripinfo id="carIn462:1" depart="57622.00" departLane="-306240162#1_0" departPos="5.10" departSpeed="0.00" departDelay="4.80" arrival="57783.00" arrivalLane="386687235_2" arrivalPos="80.84" arrivalSpeed="15.97" duration="161.00" routeLength="2257.41" waitingTime="0.00" waitingCount="0" stopTime="0.00" timeLoss="35.21" rerouteNo="1" devices="tripinfo_carIn462:1 routing_carIn462:1 emissions_carIn462:1" vType="default_016" speedFactor="1.19" vaporized="">
        <emissions CO_abs="7326.057775" CO2_abs="574495.004316" HC_abs="47.028453" PMx_abs="10.730304" NOx_abs="234.394184" fuel_abs="246.949080" electricity_abs="0"/>
    </tripinfo>
    <tripinfo id="carIn116184:1" depart="57627.00" departLane="-306240162#1_0" departPos="5.10" departSpeed="0.00" departDelay="0.10" arrival="57784.00" arrivalLane="386687235_2" arrivalPos="80.84" arrivalSpeed="14.46" duration="157.00" routeLength="2257.41" waitingTime="0.00" waitingCount="0" stopTime="0.00" timeLoss="22.29" rerouteNo="1" devices="tripinfo_carIn116184:1 routing_carIn116184:1 emissions_carIn116184:1" vType="default_016" speedFactor="1.10" vaporized="">
        <emissions CO_abs="6561.563679" CO2_abs="526971.195800" HC_abs="42.212970" PMx_abs="9.631212" NOx_abs="212.468124" fuel_abs="226.521047" electricity_abs="0"/>
    </tripinfo>
    <tripinfo id="carIn82220:1" depart="57619.00" departLane="-306240162#1_0" departPos="5.10" departSpeed="0.00" departDelay="3.50" arrival="57785.00" arrivalLane="386687235_1" arrivalPos="80.84" arrivalSpeed="14.81" duration="166.00" routeLength="2257.41" waitingTime="1.00" waitingCount="1" stopTime="0.00" timeLoss="28.14" rerouteNo="1" devices="tripinfo_carIn82220:1 routing_carIn82220:1 emissions_carIn82220:1" vType="default_016" speedFactor="1.08" vaporized="">
        <emissions CO_abs="5901.060465" CO2_abs="511218.077057" HC_abs="38.822765" PMx_abs="8.775362" NOx_abs="202.714629" fuel_abs="219.749953" electricity_abs="0"/>
    </tripinfo>
    <tripinfo id="carIn50326:1" depart="57651.00" departLane="128361102#0_1" departPos="5.10" departSpeed="0.00" departDelay="0.30" arrival="57787.00" arrivalLane="18809673#0_1" arrivalPos="473.56" arrivalSpeed="16.06" duration="136.00" routeLength="1591.07" waitingTime="1.00" waitingCount="1" stopTime="0.00" timeLoss="24.13" rerouteNo="1" devices="tripinfo_carIn50326:1 routing_carIn50326:1 emissions_carIn50326:1" vType="default_016" speedFactor="1.17" vaporized="">
        <emissions CO_abs="5246.459935" CO2_abs="370228.628850" HC_abs="32.450060" PMx_abs="6.571219" NOx_abs="150.192186" fuel_abs="159.145130" electricity_abs="0"/>
    </tripinfo>
    <tripinfo id="carIn27009:1" depart="57673.00" departLane="-447569998#1_1" departPos="5.10" departSpeed="0.00" departDelay="0.50" arrival="57788.00" arrivalLane="-26677539_1" arrivalPos="152.75" arrivalSpeed="6.93" duration="115.00" routeLength="699.63" waitingTime="12.00" waitingCount="1" stopTime="0.00" timeLoss="26.20" rerouteNo="1" devices="tripinfo_carIn27009:1 routing_carIn27009:1 emissions_carIn27009:1" vType="default_015" speedFactor="0.94" vaporized="">
        <emissions CO_abs="5611.861156" CO2_abs="209714.310636" HC_abs="30.347106" PMx_abs="3.474434" NOx_abs="85.622873" fuel_abs="90.149464" electricity_abs="0"/>
    </tripinfo>
    <tripinfo id="h3154c1:1" depart="57658.00" departLane="24634507_1" departPos="5.10" departSpeed="0.00" departDelay="0.00" arrival="57790.00" arrivalLane="-266565295#5_1" arrivalPos="172.76" arrivalSpeed="11.24" duration="132.00" routeLength="1206.22" waitingTime="10.00" waitingCount="2" stopTime="0.00" timeLoss="28.93" rerouteNo="1" devices="tripinfo_h3154c1:1 routing_h3154c1:1 emissions_h3154c1:1" vType="default_016" speedFactor="0.87" vaporized="">
        <emissions CO_abs="4669.386130" CO2_abs="269440.371502" HC_abs="27.542011" PMx_abs="4.586117" NOx_abs="109.474486" fuel_abs="115.821561" electricity_abs="0"/>
    </tripinfo>
    <tripinfo id="carIn12365:1" depart="57713.00" departLane="315358244_1" departPos="5.10" departSpeed="0.00" departDelay="0.50" arrival="57792.00" arrivalLane="447569997#1_1" arrivalPos="180.93" arrivalSpeed="7.42" duration="79.00" routeLength="718.04" waitingTime="2.00" waitingCount="1" stopTime="0.00" timeLoss="15.07" rerouteNo="1" devices="tripinfo_carIn12365:1 routing_carIn12365:1 emissions_carIn12365:1" vType="default_016" speedFactor="0.96" vaporized="">
        <emissions CO_abs="2617.959181" CO2_abs="153130.080331" HC_abs="15.459411" PMx_abs="2.428991" NOx_abs="60.898595" fuel_abs="65.824711" electricity_abs="0"/>
    </tripinfo>
    <tripinfo id="carIn129809:1" depart="57729.00" departLane="-447569998#1_1" departPos="5.10" departSpeed="0.00" departDelay="1.00" arrival="57796.00" arrivalLane="-315358244_1" arrivalPos="33.95" arrivalSpeed="13.85" duration="67.00" routeLength="706.49" waitingTime="0.00" waitingCount="0" stopTime="0.00" timeLoss="9.10" rerouteNo="1" devices="tripinfo_carIn129809:1 routing_carIn129809:1 emissions_carIn129809:1" vType="default_015" speedFactor="1.05" vaporized="">
        <emissions CO_abs="2400.615486" CO2_abs="154334.191492" HC_abs="14.491917" PMx_abs="2.474257" NOx_abs="61.178766" fuel_abs="66.342102" electricity_abs="0"/>
    </tripinfo>
    <tripinfo id="carIn28951:1" depart="57606.00" departLane="10425609#0_1" departPos="5.10" departSpeed="0.00" departDelay="0.20" arrival="57797.00" arrivalLane="-128361102#1_1" arrivalPos="274.68" arrivalSpeed="11.59" duration="191.00" routeLength="2113.04" waitingTime="0.00" waitingCount="0" stopTime="0.00" timeLoss="17.24" rerouteNo="1" devices="tripinfo_carIn28951:1 routing_carIn28951:1 emissions_carIn28951:1" vType="default_016" speedFactor="0.89" vaporized="">
        <emissions CO_abs="5307.652394" CO2_abs="416862.785245" HC_abs="33.841518" PMx_abs="6.463108" NOx_abs="163.931822" fuel_abs="179.191985" electricity_abs="0"/>
    </tripinfo>
    <tripinfo id="carIn107084:1" depart="57601.00" departLane="124812856#0_1" departPos="5.10" departSpeed="0.00" departDelay="0.70" arrival="57800.00" arrivalLane="-128361102#1_1" arrivalPos="274.68" arrivalSpeed="12.19" duration="199.00" routeLength="2250.49" waitingTime="4.00" waitingCount="1" stopTime="0.00" timeLoss="24.96" rerouteNo="1" devices="tripinfo_carIn107084:1 routing_carIn107084:1 emissions_carIn107084:1" vType="default_016" speedFactor="0.94" vaporized="">
        <emissions CO_abs="5536.412750" CO2_abs="462409.167855" HC_abs="35.944229" PMx_abs="7.162866" NOx_abs="180.954386" fuel_abs="198.770276" electricity_abs="0"/>
    </tripinfo>
    <tripinfo id="carIn77943:1" depart="57608.00" departLane="124812856#0_1" departPos="5.10" departSpeed="0.00" departDelay="2.50" arrival="57803.00" arrivalLane="-128361102#1_1" arrivalPos="274.68" arrivalSpeed="13.22" duration="195.00" routeLength="2250.49" waitingTime="0.00" waitingCount="0" stopTime="0.00" timeLoss="24.73" rerouteNo="1" devices="tripinfo_carIn77943:1 routing_carIn77943:1 emissions_carIn77943:1" vType="default_016" speedFactor="0.97" vaporized="">
        <emissions CO_abs="5549.074509" CO2_abs="456630.039953" HC_abs="35.888823" PMx_abs="7.091879" NOx_abs="178.673190" fuel_abs="196.286131" electricity_abs="0"/>
    </tripinfo>
    <tripinfo id="carIn81046:1" depart="57611.00" departLane="124812856#0_1" departPos="5.10" departSpeed="0.00" departDelay="2.50" arrival="57804.00" arrivalLane="-128361102#1_1" arrivalPos="274.68" arrivalSpeed="14.51" duration="193.00" routeLength="2250.49" waitingTime="0.00" waitingCount="0" stopTime="0.00" timeLoss="36.89" rerouteNo="1" devices="tripinfo_carIn81046:1 routing_carIn81046:1 emissions_carIn81046:1" vType="default_016" speedFactor="1.05" vaporized="">
        <emissions CO_abs="6913.316666" CO2_abs="517940.031090" HC_abs="43.646398" PMx_abs="8.901457" NOx_abs="209.025477" fuel_abs="222.639860" electricity_abs="0"/>
    </tripinfo>
    <tripinfo id="carIn77438:1" depart="57614.00" departLane="124812856#0_1" departPos="5.10" departSpeed="0.00" departDelay="1.10" arrival="57806.00" arrivalLane="-128361102#1_1" arrivalPos="274.68" arrivalSpeed="13.88" duration="192.00" routeLength="2250.49" waitingTime="0.00" waitingCount="0" stopTime="0.00" timeLoss="35.46" rerouteNo="1" devices="tripinfo_carIn77438:1 routing_carIn77438:1 emissions_carIn77438:1" vType="default_016" speedFactor="1.05" vaporized="">
        <emissions CO_abs="7253.254480" CO2_abs="538688.011501" HC_abs="45.716047" PMx_abs="9.425116" NOx_abs="218.502675" fuel_abs="231.558310" electricity_abs="0"/>
    </tripinfo>
    <tripinfo id="h19804c1:3" depart="57617.00" departLane="124812856#0_1" departPos="5.10" departSpeed="0.00" departDelay="1.50" arrival="57808.00" arrivalLane="-128361102#1_1" arrivalPos="274.68" arrivalSpeed="13.83" duration="191.00" routeLength="2250.49" waitingTime="0.00" waitingCount="0" stopTime="0.00" timeLoss="37.50" rerouteNo="1" devices="tripinfo_h19804c1:3 routing_h19804c1:3 emissions_h19804c1:3" vType="default_016" speedFactor="1.07" vaporized="">
        <emissions CO_abs="7346.055587" CO2_abs="550484.451169" HC_abs="46.356211" PMx_abs="9.549409" NOx_abs="222.625471" fuel_abs="236.629154" electricity_abs="0"/>
    </tripinfo>
    <tripinfo id="carIn102915:1" depart="57643.00" departLane="128361102#0_1" departPos="5.10" departSpeed="0.00" departDelay="0.40" arrival="57810.00" arrivalLane="201956811#0_1" arrivalPos="40.40" arrivalSpeed="13.95" duration="167.00" routeLength="2067.33" waitingTime="0.00" waitingCount="0" stopTime="0.00" timeLoss="17.57" rerouteNo="1" devices="tripinfo_carIn102915:1 routing_carIn102915:1 emissions_carIn102915:1" vType="default_016" speedFactor="1.01" vaporized="">
        <emissions CO_abs="4889.202765" CO2_abs="431523.264038" HC_abs="32.242328" PMx_abs="6.874596" NOx_abs="169.286828" fuel_abs="185.493261" electricity_abs="0"/>
    </tripinfo>
    <tripinfo id="carIn82278:1" depart="57702.00" departLane="-306240162#1_0" departPos="5.10" departSpeed="0.00" departDelay="0.70" arrival="57812.00" arrivalLane="399835085#1_1" arrivalPos="212.23" arrivalSpeed="8.63" duration="110.00" routeLength="1093.26" waitingTime="18.00" waitingCount="1" stopTime="0.00" timeLoss="35.97" rerouteNo="1" devices="tripinfo_carIn82278:1 routing_carIn82278:1 emissions_carIn82278:1" vType="default_016" speedFactor="1.06" vaporized="">
        <emissions CO_abs="6566.408758" CO2_abs="325304.395281" HC_abs="37.575193" PMx_abs="6.286971" NOx_abs="135.021833" fuel_abs="139.835101" electricity_abs="0"/>
    </tripinfo>
    <tripinfo id="carIn107842:1" depart="57623.00" departLane="124812856#0_1" departPos="5.10" departSpeed="0.00" departDelay="1.90" arrival="57816.00" arrivalLane="-128361102#1_1" arrivalPos="274.68" arrivalSpeed="12.94" duration="193.00" routeLength="2250.49" waitingTime="0.00" waitingCount="0" stopTime="0.00" timeLoss="23.18" rerouteNo="1" devices="tripinfo_carIn107842:1 routing_carIn107842:1 emissions_carIn107842:1" vType="default_016" speedFactor="0.97" vaporized="">
        <emissions CO_abs="5336.849110" CO2_abs="443258.841003" HC_abs="34.585908" PMx_abs="6.865704" NOx_abs="173.249591" fuel_abs="190.538401" electricity_abs="0"/>
    </tripinfo>
    <tripinfo id="carIn12858:1" depart="57661.00" departLane="128361109#1_1" departPos="5.10" departSpeed="0.00" departDelay="0.90" arrival="57817.00" arrivalLane="399835085#1_1" arrivalPos="212.23" arrivalSpeed="7.28" duration="156.00" routeLength="1738.12" waitingTime="4.00" waitingCount="2" stopTime="0.00" timeLoss="39.88" rerouteNo="1" devices="tripinfo_carIn12858:1 routing_carIn12858:1 emissions_carIn12858:1" vType="default_016" speedFactor="0.99" vaporized="">
        <emissions CO_abs="8327.496611" CO2_abs="503779.582020" HC_abs="49.921622" PMx_abs="9.696207" NOx_abs="209.021561" fuel_abs="216.552789" electricity_abs="0"/>
    </tripinfo>
    <tripinfo id="h20540c1:1" depart="57634.00" departLane="10425609#0_1" departPos="5.10" departSpeed="0.00" departDelay="0.50" arrival="57818.00" arrivalLane="-128361102#1_1" arrivalPos="274.68" arrivalSpeed="13.07" duration="184.00" routeLength="2113.04" waitingTime="0.00" waitingCount="0" stopTime="0.00" timeLoss="25.38" rerouteNo="1" devices="tripinfo_h20540c1:1 routing_h20540c1:1 emissions_h20540c1:1" vType="default_016" speedFactor="0.97" vaporized="">
        <emissions CO_abs="5942.499911" CO2_abs="450878.707613" HC_abs="37.609691" PMx_abs="7.505103" NOx_abs="180.263910" fuel_abs="193.813439" electricity_abs="0"/>
    </tripinfo>
    <tripinfo id="h15382c1:3" depart="57626.00" departLane="124812856#0_1" departPos="5.10" departSpeed="0.00" departDelay="3.80" arrival="57820.00" arrivalLane="-128361102#1_1" arrivalPos="274.68" arrivalSpeed="14.25" duration="194.00" routeLength="2250.49" waitingTime="9.00" waitingCount="1" stopTime="0.00" timeLoss="40.48" rerouteNo="1" devices="tripinfo_h15382c1:3 routing_h15382c1:3 emissions_h15382c1:3" vType="default_016" speedFactor="1.08" vaporized="">
        <emissions CO_abs="7681.195831" CO2_abs="528286.186520" HC_abs="47.379851" PMx_abs="9.252082" NOx_abs="213.790253" fuel_abs="227.087546" electricity_abs="0"/>
    </tripinfo>
    <tripinfo id="carIn46110:1" depart="57683.00" departLane="315358244_1" departPos="5.10" departSpeed="0.00" departDelay="0.20" arrival="57820.00" arrivalLane="32978638#0_1" arrivalPos="49.29" arrivalSpeed="14.64" duration="137.00" routeLength="1764.04" waitingTime="1.00" waitingCount="1" stopTime="0.00" timeLoss="18.44" rerouteNo="1" devices="tripinfo_carIn46110:1 routing_carIn46110:1 emissions_carIn46110:1" vType="default_016" speedFactor="1.09" vaporized="">
        <emissions CO_abs="4323.443955" CO2_abs="374599.822296" HC_abs="28.254718" PMx_abs="6.113623" NOx_abs="146.988616" fuel_abs="161.024240" electricity_abs="0"/>
    </tripinfo>
    <tripinfo id="carIn56649:1" depart="57632.00" departLane="124812856#0_1" departPos="5.10" departSpeed="0.00" departDelay="8.10" arrival="57821.00" arrivalLane="-128361102#1_1" arrivalPos="274.68" arrivalSpeed="14.03" duration="189.00" routeLength="2250.49" waitingTime="5.00" waitingCount="1" stopTime="0.00" timeLoss="35.50" rerouteNo="1" devices="tripinfo_carIn56649:1 routing_carIn56649:1 emissions_carIn56649:1" vType="default_016" speedFactor="1.07" vaporized="">
        <emissions CO_abs="6852.526270" CO2_abs="520992.755665" HC_abs="43.385583" PMx_abs="9.047155" NOx_abs="209.987125" fuel_abs="223.951938" electricity_abs="0"/>
    </tripinfo>