<?xml version="1.0" encoding="UTF-8"?>

<!-- generated on 2021-10-26 11:32:39 by Eclipse SUMO sumo Version 1.10.0
<configuration xmlns:xsi="http://www.w3.org/2001/XMLSchema-instance" xsi:noNamespaceSchemaLocation="http://sumo.dlr.de/xsd/sumoConfiguration.xsd">

    <input>
        <net-file value="/Users/behradkoohy/sumo-scratchpad/RESCO/environments/ingolstadt21/ingolstadt21.net.xml"/>
        <route-files value="/Users/behradkoohy/sumo-scratchpad/RESCO/environments/ingolstadt21/ingolstadt21.rou.xml"/>
    </input>

    <output>
        <tripinfo-output value="/Users/behradkoohy/sumo-scratchpad/RESCO/logs/MAXWAVE-tr0-ingolstadt21-21-wave-wait/tripinfo_12.xml"/>
        <tripinfo-output.write-unfinished value="true"/>
    </output>

    <time>
        <begin value="57600"/>
        <end value="61200"/>
    </time>

    <processing>
        <time-to-teleport value="-1"/>
    </processing>

    <report>
        <no-warnings value="true"/>
        <no-step-log value="true"/>
    </report>

    <emissions>
        <device.emissions.probability value="1"/>
    </emissions>

    <traci_server>
        <remote-port value="57250"/>
    </traci_server>

    <random_number>
        <random value="true"/>
    </random_number>

</configuration>
-->

<tripinfos xmlns:xsi="http://www.w3.org/2001/XMLSchema-instance" xsi:noNamespaceSchemaLocation="http://sumo.dlr.de/xsd/tripinfo_file.xsd">
    <tripinfo id="carIn60260:1" depart="57606.00" departLane="315358254#0_1" departPos="5.10" departSpeed="0.00" departDelay="0.90" arrival="57663.00" arrivalLane="399835085#1_1" arrivalPos="212.23" arrivalSpeed="6.69" duration="57.00" routeLength="430.98" waitingTime="0.00" waitingCount="0" stopTime="0.00" timeLoss="7.12" rerouteNo="1" devices="tripinfo_carIn60260:1 routing_carIn60260:1 emissions_carIn60260:1" vType="default_016" speedFactor="0.93" vaporized="">
        <emissions CO_abs="2285.191277" CO2_abs="112538.822964" HC_abs="12.993811" PMx_abs="1.815828" NOx_abs="45.432831" fuel_abs="48.376308" electricity_abs="0"/>
    </tripinfo>
    <tripinfo id="h15454c2:3" depart="57612.00" departLane="24608844_1" departPos="5.10" departSpeed="0.00" departDelay="0.50" arrival="57665.00" arrivalLane="32978638#0_1" arrivalPos="49.29" arrivalSpeed="11.29" duration="53.00" routeLength="354.79" waitingTime="2.00" waitingCount="1" stopTime="0.00" timeLoss="12.07" rerouteNo="1" devices="tripinfo_h15454c2:3 routing_h15454c2:3 emissions_h15454c2:3" vType="default_016" speedFactor="0.84" vaporized="">
        <emissions CO_abs="2325.177804" CO2_abs="108557.421115" HC_abs="13.100262" PMx_abs="1.855862" NOx_abs="44.531338" fuel_abs="46.664791" electricity_abs="0"/>
    </tripinfo>
    <tripinfo id="carIn53971:1" depart="57640.00" departLane="272042143_1" departPos="5.10" departSpeed="0.00" departDelay="0.80" arrival="57700.00" arrivalLane="24634414#1_1" arrivalPos="162.19" arrivalSpeed="7.16" duration="60.00" routeLength="493.04" waitingTime="0.00" waitingCount="0" stopTime="0.00" timeLoss="9.15" rerouteNo="1" devices="tripinfo_carIn53971:1 routing_carIn53971:1 emissions_carIn53971:1" vType="default_016" speedFactor="0.91" vaporized="">
        <emissions CO_abs="2477.479807" CO2_abs="128111.216579" HC_abs="14.263450" PMx_abs="2.226374" NOx_abs="52.656586" fuel_abs="55.069969" electricity_abs="0"/>
    </tripinfo>
    <tripinfo id="h12244c1:3" depart="57612.00" departLane="315358244_1" departPos="5.10" departSpeed="0.00" departDelay="0.40" arrival="57704.00" arrivalLane="386687235_1" arrivalPos="80.84" arrivalSpeed="13.85" duration="92.00" routeLength="1186.14" waitingTime="0.00" waitingCount="0" stopTime="0.00" timeLoss="9.44" rerouteNo="1" devices="tripinfo_h12244c1:3 routing_h12244c1:3 emissions_h12244c1:3" vType="default_016" speedFactor="1.05" vaporized="">
        <emissions CO_abs="2613.165978" CO2_abs="237379.470231" HC_abs="17.354501" PMx_abs="3.689183" NOx_abs="92.138808" fuel_abs="102.039320" electricity_abs="0"/>
    </tripinfo>
    <tripinfo id="S5R_frequency1.2" depart="57615.00" departLane="315358250#0_1" departPos="12.10" departSpeed="0.00" departDelay="3.40" arrival="57708.00" arrivalLane="386687235_1" arrivalPos="80.84" arrivalSpeed="13.63" duration="93.00" routeLength="1115.62" waitingTime="0.00" waitingCount="0" stopTime="0.00" timeLoss="11.24" rerouteNo="1" devices="tripinfo_S5R_frequency1.2 routing_S5R_frequency1.2 emissions_S5R_frequency1.2" vType="bus" speedFactor="1.00" vaporized="">
        <emissions CO_abs="1744.689432" CO2_abs="1111889.785142" HC_abs="367.108927" PMx_abs="187.480140" NOx_abs="8576.214899" fuel_abs="474.215314" electricity_abs="0"/>
    </tripinfo>
    <tripinfo id="carIn80064:1" depart="57603.00" departLane="128361109#1_1" departPos="5.10" departSpeed="0.00" departDelay="0.40" arrival="57719.00" arrivalLane="-315358254#1_1" arrivalPos="137.16" arrivalSpeed="14.54" duration="116.00" routeLength="1587.97" waitingTime="3.00" waitingCount="1" stopTime="0.00" timeLoss="35.92" rerouteNo="1" devices="tripinfo_carIn80064:1 routing_carIn80064:1 emissions_carIn80064:1" vType="default_016" speedFactor="1.13" vaporized="">
        <emissions CO_abs="7512.587601" CO2_abs="492734.956609" HC_abs="46.018156" PMx_abs="10.033529" NOx_abs="206.816933" fuel_abs="211.803916" electricity_abs="0"/>
    </tripinfo>
    <tripinfo id="h7800c1:5" depart="57696.00" departLane="-447569998#1_1" departPos="5.10" departSpeed="0.00" departDelay="0.00" arrival="57721.00" arrivalLane="-447569998#1_1" arrivalPos="180.76" arrivalSpeed="7.30" duration="25.00" routeLength="175.66" waitingTime="0.00" waitingCount="0" stopTime="0.00" timeLoss="3.32" rerouteNo="1" devices="tripinfo_h7800c1:5 routing_h7800c1:5 emissions_h7800c1:5" vType="default_016" speedFactor="0.99" vaporized="">
        <emissions CO_abs="1254.851074" CO2_abs="54063.523118" HC_abs="6.951545" PMx_abs="0.875044" NOx_abs="21.943047" fuel_abs="23.240044" electricity_abs="0"/>
    </tripinfo>
    <tripinfo id="carIn22761:1" depart="57616.00" departLane="-306240162#1_0" departPos="5.10" departSpeed="0.00" departDelay="2.10" arrival="57723.00" arrivalLane="399835085#1_1" arrivalPos="212.23" arrivalSpeed="8.36" duration="107.00" routeLength="1093.26" waitingTime="12.00" waitingCount="1" stopTime="0.00" timeLoss="31.78" rerouteNo="1" devices="tripinfo_carIn22761:1 routing_carIn22761:1 emissions_carIn22761:1" vType="default_016" speedFactor="1.04" vaporized="">
        <emissions CO_abs="6001.530376" CO2_abs="321144.583206" HC_abs="34.943613" PMx_abs="6.043479" NOx_abs="132.057888" fuel_abs="138.046834" electricity_abs="0"/>
    </tripinfo>
    <tripinfo id="h9563c2:5" depart="57631.00" departLane="315358244_1" departPos="5.10" departSpeed="0.00" departDelay="0.70" arrival="57730.00" arrivalLane="386687235_1" arrivalPos="80.84" arrivalSpeed="12.38" duration="99.00" routeLength="1186.14" waitingTime="0.00" waitingCount="0" stopTime="0.00" timeLoss="8.98" rerouteNo="1" devices="tripinfo_h9563c2:5 routing_h9563c2:5 emissions_h9563c2:5" vType="default_016" speedFactor="0.96" vaporized="">
        <emissions CO_abs="2672.111250" CO2_abs="222786.559324" HC_abs="17.359880" PMx_abs="3.531656" NOx_abs="87.581793" fuel_abs="95.766477" electricity_abs="0"/>
    </tripinfo>
    <tripinfo id="h3688c1:1" depart="57625.00" departLane="201201950#1_1" departPos="5.10" departSpeed="0.00" departDelay="0.00" arrival="57733.00" arrivalLane="32978638#0_1" arrivalPos="49.29" arrivalSpeed="12.21" duration="108.00" routeLength="1089.75" waitingTime="5.00" waitingCount="1" stopTime="0.00" timeLoss="19.98" rerouteNo="1" devices="tripinfo_h3688c1:1 routing_h3688c1:1 emissions_h3688c1:1" vType="default_016" speedFactor="0.90" vaporized="">
        <emissions CO_abs="3505.246107" CO2_abs="246561.953180" HC_abs="21.692088" PMx_abs="3.945133" NOx_abs="97.939281" fuel_abs="105.986842" electricity_abs="0"/>
    </tripinfo>
    <tripinfo id="h3568c1:3" depart="57656.00" departLane="266565295#5_1" departPos="5.10" departSpeed="0.00" departDelay="0.80" arrival="57733.00" arrivalLane="-24634415_1" arrivalPos="62.03" arrivalSpeed="13.24" duration="77.00" routeLength="807.40" waitingTime="0.00" waitingCount="0" stopTime="0.00" timeLoss="12.16" rerouteNo="1" devices="tripinfo_h3568c1:3 routing_h3568c1:3 emissions_h3568c1:3" vType="default_016" speedFactor="1.00" vaporized="">
        <emissions CO_abs="3263.765115" CO2_abs="207610.106977" HC_abs="19.734411" PMx_abs="3.624195" NOx_abs="84.518973" fuel_abs="89.242840" electricity_abs="0"/>
    </tripinfo>
    <tripinfo id="h317c2:1" depart="57707.00" departLane="-32978638#0_1" departPos="5.10" departSpeed="0.00" departDelay="0.10" arrival="57749.00" arrivalLane="-266565295#5_1" arrivalPos="172.76" arrivalSpeed="11.00" duration="42.00" routeLength="370.53" waitingTime="1.00" waitingCount="1" stopTime="0.00" timeLoss="8.96" rerouteNo="1" devices="tripinfo_h317c2:1 routing_h317c2:1 emissions_h317c2:1" vType="default_016" speedFactor="0.83" vaporized="">
        <emissions CO_abs="1921.885531" CO2_abs="101912.508511" HC_abs="11.123608" PMx_abs="1.755357" NOx_abs="41.689986" fuel_abs="43.808168" electricity_abs="0"/>
    </tripinfo>
    <tripinfo id="h4538c1:1" depart="57701.00" departLane="-10427692#1_1" departPos="5.10" departSpeed="0.00" departDelay="0.00" arrival="57750.00" arrivalLane="-128361102#1_1" arrivalPos="274.68" arrivalSpeed="16.68" duration="49.00" routeLength="440.74" waitingTime="12.00" waitingCount="1" stopTime="0.00" timeLoss="23.43" rerouteNo="1" devices="tripinfo_h4538c1:1 routing_h4538c1:1 emissions_h4538c1:1" vType="default_016" speedFactor="1.25" vaporized="">
        <emissions CO_abs="3559.608563" CO2_abs="153039.316453" HC_abs="19.721846" PMx_abs="3.022993" NOx_abs="63.953498" fuel_abs="65.785648" electricity_abs="0"/>
    </tripinfo>
    <tripinfo id="h7181c1:1" depart="57660.00" departLane="315358254#0_1" departPos="5.10" departSpeed="0.00" departDelay="0.10" arrival="57759.00" arrivalLane="306240162#0_0" arrivalPos="220.43" arrivalSpeed="17.82" duration="99.00" routeLength="932.35" waitingTime="30.00" waitingCount="2" stopTime="0.00" timeLoss="51.61" rerouteNo="1" devices="tripinfo_h7181c1:1 routing_h7181c1:1 emissions_h7181c1:1" vType="default_016" speedFactor="1.08" vaporized="">
        <emissions CO_abs="8404.766007" CO2_abs="376117.355574" HC_abs="47.251471" PMx_abs="7.795862" NOx_abs="158.837193" fuel_abs="161.677486" electricity_abs="0"/>
    </tripinfo>
    <tripinfo id="carIn30817:1" depart="57681.00" departLane="315358244_1" departPos="5.10" departSpeed="0.00" departDelay="0.20" arrival="57761.00" arrivalLane="447569997#1_1" arrivalPos="180.93" arrivalSpeed="6.26" duration="80.00" routeLength="718.04" waitingTime="0.00" waitingCount="0" stopTime="0.00" timeLoss="7.93" rerouteNo="1" devices="tripinfo_carIn30817:1 routing_carIn30817:1 emissions_carIn30817:1" vType="default_016" speedFactor="0.86" vaporized="">
        <emissions CO_abs="2512.443165" CO2_abs="149724.674919" HC_abs="14.861106" PMx_abs="2.176544" NOx_abs="58.414913" fuel_abs="64.361105" electricity_abs="0"/>
    </tripinfo>
    <tripinfo id="h3326c1:2" depart="57656.00" departLane="22716069#0_1" departPos="5.10" departSpeed="0.00" departDelay="0.00" arrival="57770.00" arrivalLane="24634517#13_1" arrivalPos="111.62" arrivalSpeed="13.40" duration="114.00" routeLength="1312.81" waitingTime="0.00" waitingCount="0" stopTime="0.00" timeLoss="14.27" rerouteNo="1" devices="tripinfo_h3326c1:2 routing_h3326c1:2 emissions_h3326c1:2" vType="default_016" speedFactor="0.98" vaporized="">
        <emissions CO_abs="3900.103829" CO2_abs="306420.183275" HC_abs="24.918375" PMx_abs="5.015028" NOx_abs="121.743341" fuel_abs="131.716942" electricity_abs="0"/>
    </tripinfo>
    <tripinfo id="carIn27009:1" depart="57673.00" departLane="-447569998#1_1" departPos="5.10" departSpeed="0.00" departDelay="0.50" arrival="57773.00" arrivalLane="-26677539_1" arrivalPos="152.75" arrivalSpeed="8.46" duration="100.00" routeLength="699.63" waitingTime="4.00" waitingCount="1" stopTime="0.00" timeLoss="17.92" rerouteNo="1" devices="tripinfo_carIn27009:1 routing_carIn27009:1 emissions_carIn27009:1" vType="default_015" speedFactor="1.03" vaporized="">
        <emissions CO_abs="4053.717016" CO2_abs="188678.726499" HC_abs="22.776215" PMx_abs="2.989462" NOx_abs="76.098720" fuel_abs="81.106302" electricity_abs="0"/>
    </tripinfo>
    <tripinfo id="h330c1:1" depart="57736.00" departLane="-32978638#0_1" departPos="5.10" departSpeed="0.00" departDelay="0.20" arrival="57775.00" arrivalLane="-266565295#5_1" arrivalPos="172.76" arrivalSpeed="14.36" duration="39.00" routeLength="370.53" waitingTime="2.00" waitingCount="1" stopTime="0.00" timeLoss="12.47" rerouteNo="1" devices="tripinfo_h330c1:1 routing_h330c1:1 emissions_h330c1:1" vType="default_016" speedFactor="1.04" vaporized="">
        <emissions CO_abs="2132.329652" CO2_abs="121503.951354" HC_abs="12.555713" PMx_abs="2.227975" NOx_abs="50.177496" fuel_abs="52.229452" electricity_abs="0"/>
    </tripinfo>
    <tripinfo id="carIn118591:1" depart="57689.00" departLane="315358244_1" departPos="5.10" departSpeed="0.00" departDelay="0.20" arrival="57776.00" arrivalLane="386687235_1" arrivalPos="80.84" arrivalSpeed="14.32" duration="87.00" routeLength="1186.14" waitingTime="0.00" waitingCount="0" stopTime="0.00" timeLoss="8.76" rerouteNo="1" devices="tripinfo_carIn118591:1 routing_carIn118591:1 emissions_carIn118591:1" vType="default_016" speedFactor="1.10" vaporized="">
        <emissions CO_abs="2627.462577" CO2_abs="233108.906058" HC_abs="17.388469" PMx_abs="3.903341" NOx_abs="92.163224" fuel_abs="100.203226" electricity_abs="0"/>
    </tripinfo>
    <tripinfo id="carIn86816:1" depart="57617.00" departLane="128361102#0_1" departPos="5.10" departSpeed="0.00" departDelay="0.80" arrival="57777.00" arrivalLane="201956811#0_1" arrivalPos="40.40" arrivalSpeed="14.14" duration="160.00" routeLength="2067.33" waitingTime="0.00" waitingCount="0" stopTime="0.00" timeLoss="16.43" rerouteNo="1" devices="tripinfo_carIn86816:1 routing_carIn86816:1 emissions_carIn86816:1" vType="default_016" speedFactor="1.05" vaporized="">
        <emissions CO_abs="4763.951000" CO2_abs="425143.302839" HC_abs="31.545969" PMx_abs="6.905105" NOx_abs="167.205043" fuel_abs="182.750587" electricity_abs="0"/>
    </tripinfo>
    <tripinfo id="h645c1:1" depart="57622.00" departLane="266565295#5_1" departPos="5.10" departSpeed="0.00" departDelay="0.40" arrival="57788.00" arrivalLane="-315358244_1" arrivalPos="33.95" arrivalSpeed="12.06" duration="166.00" routeLength="1910.83" waitingTime="2.00" waitingCount="1" stopTime="0.00" timeLoss="16.79" rerouteNo="1" devices="tripinfo_h645c1:1 routing_h645c1:1 emissions_h645c1:1" vType="default_016" speedFactor="0.92" vaporized="">
        <emissions CO_abs="4217.811030" CO2_abs="349778.888985" HC_abs="27.323478" PMx_abs="5.343257" NOx_abs="136.414332" fuel_abs="150.355391" electricity_abs="0"/>
    </tripinfo>
    <tripinfo id="carIn50326:1" depart="57651.00" departLane="128361102#0_1" departPos="5.10" departSpeed="0.00" departDelay="0.30" arrival="57788.00" arrivalLane="18809673#0_1" arrivalPos="473.56" arrivalSpeed="15.81" duration="137.00" routeLength="1591.07" waitingTime="5.00" waitingCount="1" stopTime="0.00" timeLoss="24.85" rerouteNo="1" devices="tripinfo_carIn50326:1 routing_carIn50326:1 emissions_carIn50326:1" vType="default_016" speedFactor="1.16" vaporized="">
        <emissions CO_abs="4778.118410" CO2_abs="356852.364155" HC_abs="29.917311" PMx_abs="6.032965" NOx_abs="142.222314" fuel_abs="153.395532" electricity_abs="0"/>
    </tripinfo>
    <tripinfo id="h3154c1:1" depart="57658.00" departLane="24634507_1" departPos="5.10" departSpeed="0.00" departDelay="0.00" arrival="57790.00" arrivalLane="-266565295#5_1" arrivalPos="172.76" arrivalSpeed="11.30" duration="132.00" routeLength="1206.22" waitingTime="9.00" waitingCount="2" stopTime="0.00" timeLoss="28.37" rerouteNo="1" devices="tripinfo_h3154c1:1 routing_h3154c1:1 emissions_h3154c1:1" vType="default_016" speedFactor="0.86" vaporized="">
        <emissions CO_abs="4950.374758" CO2_abs="300579.393664" HC_abs="29.530953" PMx_abs="4.978128" NOx_abs="121.075667" fuel_abs="129.206978" electricity_abs="0"/>
    </tripinfo>
    <tripinfo id="h11737c1:1" depart="57665.00" departLane="272042143_1" departPos="5.10" departSpeed="0.00" departDelay="1.50" arrival="57796.00" arrivalLane="-315358254#1_1" arrivalPos="137.16" arrivalSpeed="15.49" duration="131.00" routeLength="1596.88" waitingTime="8.00" waitingCount="1" stopTime="0.00" timeLoss="27.72" rerouteNo="1" devices="tripinfo_h11737c1:1 routing_h11737c1:1 emissions_h11737c1:1" vType="default_016" speedFactor="1.13" vaporized="">
        <emissions CO_abs="4841.072456" CO2_abs="366977.749425" HC_abs="30.600790" PMx_abs="6.454224" NOx_abs="147.731247" fuel_abs="157.747593" electricity_abs="0"/>
    </tripinfo>
    <tripinfo id="carIn126288:1" depart="57674.00" departLane="272042143_1" departPos="5.10" departSpeed="0.00" departDelay="0.00" arrival="57801.00" arrivalLane="-315358254#1_1" arrivalPos="137.16" arrivalSpeed="13.20" duration="127.00" routeLength="1596.88" waitingTime="0.00" waitingCount="0" stopTime="0.00" timeLoss="13.42" rerouteNo="1" devices="tripinfo_carIn126288:1 routing_carIn126288:1 emissions_carIn126288:1" vType="default_016" speedFactor="1.03" vaporized="">
        <emissions CO_abs="3711.264221" CO2_abs="311557.245869" HC_abs="24.162016" PMx_abs="5.085827" NOx_abs="123.081382" fuel_abs="133.925007" electricity_abs="0"/>
    </tripinfo>
    <tripinfo id="h5979c1:5" depart="57669.00" departLane="399835085#1_1" departPos="5.10" departSpeed="0.00" departDelay="0.00" arrival="57804.00" arrivalLane="-315358254#1_1" arrivalPos="137.16" arrivalSpeed="15.02" duration="135.00" routeLength="659.33" waitingTime="53.00" waitingCount="2" stopTime="0.00" timeLoss="70.42" rerouteNo="1" devices="tripinfo_h5979c1:5 routing_h5979c1:5 emissions_h5979c1:5" vType="default_016" speedFactor="1.14" vaporized="">
        <emissions CO_abs="10885.619429" CO2_abs="309931.932509" HC_abs="56.802624" PMx_abs="6.233772" NOx_abs="132.448201" fuel_abs="133.230472" electricity_abs="0"/>
    </tripinfo>
    <tripinfo id="carIn82278:1" depart="57702.00" departLane="-306240162#1_0" departPos="5.10" departSpeed="0.00" departDelay="0.70" arrival="57804.00" arrivalLane="399835085#1_1" arrivalPos="212.23" arrivalSpeed="7.48" duration="102.00" routeLength="1093.26" waitingTime="7.00" waitingCount="1" stopTime="0.00" timeLoss="25.21" rerouteNo="1" devices="tripinfo_carIn82278:1 routing_carIn82278:1 emissions_carIn82278:1" vType="default_016" speedFactor="1.02" vaporized="">
        <emissions CO_abs="4948.202931" CO2_abs="289971.602830" HC_abs="29.382238" PMx_abs="5.425936" NOx_abs="118.760957" fuel_abs="124.646519" electricity_abs="0"/>
    </tripinfo>
    <tripinfo id="carIn12858:1" depart="57661.00" departLane="128361109#1_1" departPos="5.10" departSpeed="0.00" departDelay="0.90" arrival="57810.00" arrivalLane="399835085#1_1" arrivalPos="212.23" arrivalSpeed="7.50" duration="149.00" routeLength="1738.12" waitingTime="15.00" waitingCount="1" stopTime="0.00" timeLoss="38.88" rerouteNo="1" devices="tripinfo_carIn12858:1 routing_carIn12858:1 emissions_carIn12858:1" vType="default_016" speedFactor="1.05" vaporized="">
        <emissions CO_abs="8565.638714" CO2_abs="498054.263221" HC_abs="50.939146" PMx_abs="9.820944" NOx_abs="206.652499" fuel_abs="214.091811" electricity_abs="0"/>
    </tripinfo>
    <tripinfo id="carIn129809:1" depart="57729.00" departLane="-447569998#1_1" departPos="5.10" departSpeed="0.00" departDelay="1.00" arrival="57813.00" arrivalLane="-315358244_1" arrivalPos="33.95" arrivalSpeed="12.84" duration="84.00" routeLength="706.49" waitingTime="5.00" waitingCount="1" stopTime="0.00" timeLoss="20.55" rerouteNo="1" devices="tripinfo_carIn129809:1 routing_carIn129809:1 emissions_carIn129809:1" vType="default_015" speedFactor="0.95" vaporized="">
        <emissions CO_abs="3140.483372" CO2_abs="180180.076943" HC_abs="18.498000" PMx_abs="3.055320" NOx_abs="73.064215" fuel_abs="77.452196" electricity_abs="0"/>
    </tripinfo>
    <tripinfo id="carIn48184:1" depart="57613.00" departLane="-306240162#1_0" departPos="5.10" departSpeed="0.00" departDelay="0.70" arrival="57814.00" arrivalLane="386687235_1" arrivalPos="80.84" arrivalSpeed="12.15" duration="201.00" routeLength="2257.41" waitingTime="9.00" waitingCount="2" stopTime="0.00" timeLoss="35.09" rerouteNo="1" devices="tripinfo_carIn48184:1 routing_carIn48184:1 emissions_carIn48184:1" vType="default_016" speedFactor="0.90" vaporized="">
        <emissions CO_abs="6639.554141" CO2_abs="501502.738877" HC_abs="41.865485" PMx_abs="8.144724" NOx_abs="197.665813" fuel_abs="215.575019" electricity_abs="0"/>
    </tripinfo>
    <tripinfo id="carIn82220:1" depart="57619.00" departLane="-306240162#1_0" departPos="5.10" departSpeed="0.00" departDelay="3.50" arrival="57814.00" arrivalLane="386687235_2" arrivalPos="80.84" arrivalSpeed="12.81" duration="195.00" routeLength="2257.41" waitingTime="9.00" waitingCount="2" stopTime="0.00" timeLoss="46.72" rerouteNo="1" devices="tripinfo_carIn82220:1 routing_carIn82220:1 emissions_carIn82220:1" vType="default_016" speedFactor="1.00" vaporized="">
        <emissions CO_abs="7724.088003" CO2_abs="551749.637873" HC_abs="48.086992" PMx_abs="9.616394" NOx_abs="221.504039" fuel_abs="237.173435" electricity_abs="0"/>
    </tripinfo>
    <tripinfo id="h16072c2:3" depart="57663.00" departLane="315358254#0_1" departPos="5.10" departSpeed="0.00" departDelay="2.50" arrival="57816.00" arrivalLane="386687235_2" arrivalPos="80.84" arrivalSpeed="14.02" duration="153.00" routeLength="1611.92" waitingTime="6.00" waitingCount="1" stopTime="0.00" timeLoss="38.87" rerouteNo="1" devices="tripinfo_h16072c2:3 routing_h16072c2:3 emissions_h16072c2:3" vType="default_016" speedFactor="1.03" vaporized="">
        <emissions CO_abs="5888.373689" CO2_abs="389452.352579" HC_abs="35.905375" PMx_abs="6.537380" NOx_abs="155.827668" fuel_abs="167.409465" electricity_abs="0"/>
    </tripinfo>
    <tripinfo id="carIn28951:1" depart="57606.00" departLane="10425609#0_1" departPos="5.10" departSpeed="0.00" departDelay="0.20" arrival="57817.00" arrivalLane="-128361102#1_1" arrivalPos="274.68" arrivalSpeed="11.07" duration="211.00" routeLength="2095.01" waitingTime="0.00" waitingCount="0" stopTime="0.00" timeLoss="20.48" rerouteNo="1" devices="tripinfo_carIn28951:1 routing_carIn28951:1 emissions_carIn28951:1" vType="default_016" speedFactor="0.81" vaporized="">
        <emissions CO_abs="6238.376634" CO2_abs="428246.879970" HC_abs="38.281234" PMx_abs="6.528022" NOx_abs="168.808246" fuel_abs="184.086260" electricity_abs="0"/>
    </tripinfo>
    <tripinfo id="carIn12152:1" depart="57647.00" departLane="24599188#0.94_1" departPos="5.10" departSpeed="0.00" departDelay="0.50" arrival="57817.00" arrivalLane="-315358254#1_1" arrivalPos="137.16" arrivalSpeed="15.38" duration="170.00" routeLength="2034.31" waitingTime="2.00" waitingCount="1" stopTime="0.00" timeLoss="27.35" rerouteNo="1" devices="tripinfo_carIn12152:1 routing_carIn12152:1 emissions_carIn12152:1" vType="default_016" speedFactor="1.11" vaporized="">
        <emissions CO_abs="5929.208955" CO2_abs="460000.463898" HC_abs="37.454345" PMx_abs="7.729819" NOx_abs="182.724968" fuel_abs="197.734371" electricity_abs="0"/>
    </tripinfo>
    <tripinfo id="h17549c1:1" depart="57680.00" departLane="-447569998#1_1" departPos="5.10" departSpeed="0.00" departDelay="0.00" arrival="57818.00" arrivalLane="-315358254#1_1" arrivalPos="137.16" arrivalSpeed="15.50" duration="138.00" routeLength="1746.60" waitingTime="0.00" waitingCount="0" stopTime="0.00" timeLoss="16.41" rerouteNo="1" devices="tripinfo_h17549c1:1 routing_h17549c1:1 emissions_h17549c1:1" vType="default_016" speedFactor="1.12" vaporized="">
        <emissions CO_abs="4570.496003" CO2_abs="375454.012866" HC_abs="29.229667" PMx_abs="6.214232" NOx_abs="148.283205" fuel_abs="161.391416" electricity_abs="0"/>
    </tripinfo>
    <tripinfo id="carIn12365:1" depart="57713.00" departLane="315358244_1" departPos="5.10" departSpeed="0.00" departDelay="0.50" arrival="57818.00" arrivalLane="447569997#1_1" arrivalPos="180.93" arrivalSpeed="5.22" duration="105.00" routeLength="718.04" waitingTime="0.00" waitingCount="0" stopTime="0.00" timeLoss="11.22" rerouteNo="1" devices="tripinfo_carIn12365:1 routing_carIn12365:1 emissions_carIn12365:1" vType="default_016" speedFactor="0.66" vaporized="">
        <emissions CO_abs="3698.542679" CO2_abs="153547.894596" HC_abs="20.335270" PMx_abs="2.396644" NOx_abs="61.731140" fuel_abs="66.005195" electricity_abs="0"/>
    </tripinfo>
    <tripinfo id="carIn102915:1" depart="57643.00" departLane="128361102#0_1" departPos="5.10" departSpeed="0.00" departDelay="0.40" arrival="57822.00" arrivalLane="201956811#0_1" arrivalPos="40.40" arrivalSpeed="13.09" duration="179.00" routeLength="2067.33" waitingTime="7.00" waitingCount="2" stopTime="0.00" timeLoss="31.42" rerouteNo="1" devices="tripinfo_carIn102915:1 routing_carIn102915:1 emissions_carIn102915:1" vType="default_016" speedFactor="1.03" vaporized="">
        <emissions CO_abs="5606.879104" CO2_abs="448294.738717" HC_abs="35.959515" PMx_abs="7.352724" NOx_abs="177.482211" fuel_abs="192.702706" electricity_abs="0"/>
    </tripinfo>
    <tripinfo id="randUni33724:1" depart="57646.00" departLane="128361102#0_1" departPos="5.10" departSpeed="0.00" departDelay="1.20" arrival="57824.00" arrivalLane="201956811#0_1" arrivalPos="40.40" arrivalSpeed="13.60" duration="178.00" routeLength="2067.33" waitingTime="4.00" waitingCount="1" stopTime="0.00" timeLoss="26.25" rerouteNo="1" devices="tripinfo_randUni33724:1 routing_randUni33724:1 emissions_randUni33724:1" vType="random_016" speedFactor="1.00" vaporized="">
        <emissions CO_abs="5674.745401" CO2_abs="452795.667607" HC_abs="36.320743" PMx_abs="7.239149" NOx_abs="178.215263" fuel_abs="194.637740" electricity_abs="0"/>
    </tripinfo>
    <tripinfo id="carIn100288:1" depart="57664.00" departLane="128361102#0_1" departPos="5.10" departSpeed="0.00" departDelay="0.60" arrival="57825.00" arrivalLane="201956811#0_1" arrivalPos="40.40" arrivalSpeed="14.68" duration="161.00" routeLength="2067.33" waitingTime="3.00" waitingCount="1" stopTime="0.00" timeLoss="41.50" rerouteNo="1" devices="tripinfo_carIn100288:1 routing_carIn100288:1 emissions_carIn100288:1" vType="default_016" speedFactor="1.26" vaporized="">
        <emissions CO_abs="5765.965398" CO2_abs="455141.099335" HC_abs="36.627143" PMx_abs="7.795195" NOx_abs="180.925523" fuel_abs="195.645311" electricity_abs="0"/>
    </tripinfo>
    <tripinfo id="carIn107282:1" depart="57749.00" departLane="-447569998#1_1" departPos="5.10" departSpeed="0.00" departDelay="0.00" arrival="57825.00" arrivalLane="315358242#0_1" arrivalPos="165.37" arrivalSpeed="13.91" duration="76.00" routeLength="448.50" waitingTime="28.00" waitingCount="1" stopTime="0.00" timeLoss="35.36" rerouteNo="1" devices="tripinfo_carIn107282:1 routing_carIn107282:1 emissions_carIn107282:1" vType="default_016" speedFactor="1.03" vaporized="">
        <emissions CO_abs="6175.783885" CO2_abs="189064.167534" HC_abs="32.497933" PMx_abs="3.669364" NOx_abs="79.647976" fuel_abs="81.272863" electricity_abs="0"/>
    </tripinfo>
    <tripinfo id="carIn107084:1" depart="57601.00" departLane="124812856#0_1" departPos="5.10" departSpeed="0.00" departDelay="0.70" arrival="57830.00" arrivalLane="-128361102#1_1" arrivalPos="274.68" arrivalSpeed="11.87" duration="229.00" routeLength="2250.49" waitingTime="12.00" waitingCount="2" stopTime="0.00" timeLoss="41.26" rerouteNo="1" devices="tripinfo_carIn107084:1 routing_carIn107084:1 emissions_carIn107084:1" vType="default_016" speedFactor="0.88" vaporized="">
        <emissions CO_abs="7272.156929" CO2_abs="487101.173095" HC_abs="44.422992" PMx_abs="7.800888" NOx_abs="193.757042" fuel_abs="209.385022" electricity_abs="0"/>
    </tripinfo>
    <tripinfo id="carIn77943:1" depart="57608.00" departLane="124812856#0_1" departPos="5.10" departSpeed="0.00" departDelay="2.50" arrival="57832.00" arrivalLane="-128361102#1_1" arrivalPos="274.68" arrivalSpeed="13.26" duration="224.00" routeLength="2250.49" waitingTime="10.00" waitingCount="1" stopTime="0.00" timeLoss="53.40" rerouteNo="1" devices="tripinfo_carIn77943:1 routing_carIn77943:1 emissions_carIn77943:1" vType="default_016" speedFactor="0.97" vaporized="">
        <emissions CO_abs="8879.518595" CO2_abs="564915.201680" HC_abs="53.674829" PMx_abs="9.812947" NOx_abs="229.959233" fuel_abs="242.833293" electricity_abs="0"/>
    </tripinfo>
    <tripinfo id="h17600c1:1" depart="57662.00" departLane="272042143_1" departPos="5.10" departSpeed="0.00" departDelay="0.30" arrival="57832.00" arrivalLane="201238729#3_1" arrivalPos="431.02" arrivalSpeed="13.13" duration="170.00" routeLength="2100.26" waitingTime="0.00" waitingCount="0" stopTime="0.00" timeLoss="16.15" rerouteNo="1" devices="tripinfo_h17600c1:1 routing_h17600c1:1 emissions_h17600c1:1" vType="default_016" speedFactor="0.99" vaporized="">
        <emissions CO_abs="4275.486294" CO2_abs="379502.166655" HC_abs="28.318481" PMx_abs="5.922771" NOx_abs="148.104130" fuel_abs="163.131816" electricity_abs="0"/>
    </tripinfo>
    <tripinfo id="carIn81046:1" depart="57611.00" departLane="124812856#0_1" departPos="5.10" departSpeed="0.00" departDelay="2.50" arrival="57834.00" arrivalLane="-128361102#1_1" arrivalPos="274.68" arrivalSpeed="14.21" duration="223.00" routeLength="2250.49" waitingTime="8.00" waitingCount="1" stopTime="0.00" timeLoss="67.16" rerouteNo="1" devices="tripinfo_carIn81046:1 routing_carIn81046:1 emissions_carIn81046:1" vType="default_016" speedFactor="1.06" vaporized="">
        <emissions CO_abs="9245.581894" CO2_abs="601006.360629" HC_abs="56.243991" PMx_abs="10.687389" NOx_abs="246.339396" fuel_abs="258.346806" electricity_abs="0"/>
    </tripinfo>