<?xml version="1.0" encoding="UTF-8"?>

<!-- generated on 2021-10-26 11:30:53 by Eclipse SUMO sumo Version 1.10.0
<configuration xmlns:xsi="http://www.w3.org/2001/XMLSchema-instance" xsi:noNamespaceSchemaLocation="http://sumo.dlr.de/xsd/sumoConfiguration.xsd">

    <input>
        <net-file value="/Users/behradkoohy/sumo-scratchpad/RESCO/environments/ingolstadt21/ingolstadt21.net.xml"/>
        <route-files value="/Users/behradkoohy/sumo-scratchpad/RESCO/environments/ingolstadt21/ingolstadt21.rou.xml"/>
    </input>

    <output>
        <tripinfo-output value="/Users/behradkoohy/sumo-scratchpad/RESCO/logs/MAXWAVE-tr0-ingolstadt21-21-wave-wait/tripinfo_9.xml"/>
        <tripinfo-output.write-unfinished value="true"/>
    </output>

    <time>
        <begin value="57600"/>
        <end value="61200"/>
    </time>

    <processing>
        <time-to-teleport value="-1"/>
    </processing>

    <report>
        <no-warnings value="true"/>
        <no-step-log value="true"/>
    </report>

    <emissions>
        <device.emissions.probability value="1"/>
    </emissions>

    <traci_server>
        <remote-port value="57227"/>
    </traci_server>

    <random_number>
        <random value="true"/>
    </random_number>

</configuration>
-->

<tripinfos xmlns:xsi="http://www.w3.org/2001/XMLSchema-instance" xsi:noNamespaceSchemaLocation="http://sumo.dlr.de/xsd/tripinfo_file.xsd">
    <tripinfo id="carIn60260:1" depart="57606.00" departLane="315358254#0_1" departPos="5.10" departSpeed="0.00" departDelay="0.90" arrival="57658.00" arrivalLane="399835085#1_1" arrivalPos="212.23" arrivalSpeed="7.83" duration="52.00" routeLength="430.98" waitingTime="0.00" waitingCount="0" stopTime="0.00" timeLoss="6.73" rerouteNo="1" devices="tripinfo_carIn60260:1 routing_carIn60260:1 emissions_carIn60260:1" vType="default_016" speedFactor="1.01" vaporized="">
        <emissions CO_abs="2176.481203" CO2_abs="110689.780183" HC_abs="12.479239" PMx_abs="1.892491" NOx_abs="45.358662" fuel_abs="47.581251" electricity_abs="0"/>
    </tripinfo>
    <tripinfo id="h15454c2:3" depart="57612.00" departLane="24608844_1" departPos="5.10" departSpeed="0.00" departDelay="0.50" arrival="57659.00" arrivalLane="32978638#0_1" arrivalPos="49.29" arrivalSpeed="11.22" duration="47.00" routeLength="354.79" waitingTime="0.00" waitingCount="0" stopTime="0.00" timeLoss="6.25" rerouteNo="1" devices="tripinfo_h15454c2:3 routing_h15454c2:3 emissions_h15454c2:3" vType="default_016" speedFactor="0.84" vaporized="">
        <emissions CO_abs="2240.486847" CO2_abs="106018.753236" HC_abs="12.656806" PMx_abs="1.814802" NOx_abs="43.534001" fuel_abs="45.573479" electricity_abs="0"/>
    </tripinfo>
    <tripinfo id="carIn53971:1" depart="57640.00" departLane="272042143_1" departPos="5.10" departSpeed="0.00" departDelay="0.80" arrival="57703.00" arrivalLane="24634414#1_1" arrivalPos="162.19" arrivalSpeed="6.49" duration="63.00" routeLength="493.04" waitingTime="0.00" waitingCount="0" stopTime="0.00" timeLoss="9.17" rerouteNo="1" devices="tripinfo_carIn53971:1 routing_carIn53971:1 emissions_carIn53971:1" vType="default_016" speedFactor="0.86" vaporized="">
        <emissions CO_abs="2753.695461" CO2_abs="137995.638612" HC_abs="15.740480" PMx_abs="2.359990" NOx_abs="56.528836" fuel_abs="59.319018" electricity_abs="0"/>
    </tripinfo>
    <tripinfo id="h12244c1:3" depart="57612.00" departLane="315358244_1" departPos="5.10" departSpeed="0.00" departDelay="0.40" arrival="57705.00" arrivalLane="386687235_1" arrivalPos="80.84" arrivalSpeed="12.90" duration="93.00" routeLength="1186.14" waitingTime="0.00" waitingCount="0" stopTime="0.00" timeLoss="8.03" rerouteNo="1" devices="tripinfo_h12244c1:3 routing_h12244c1:3 emissions_h12244c1:3" vType="default_016" speedFactor="1.02" vaporized="">
        <emissions CO_abs="2578.871802" CO2_abs="237323.751060" HC_abs="17.193892" PMx_abs="3.708350" NOx_abs="92.383217" fuel_abs="102.015294" electricity_abs="0"/>
    </tripinfo>
    <tripinfo id="S5R_frequency1.2" depart="57615.00" departLane="315358250#0_1" departPos="12.10" departSpeed="0.00" departDelay="3.40" arrival="57710.00" arrivalLane="386687235_1" arrivalPos="80.84" arrivalSpeed="13.48" duration="95.00" routeLength="1115.62" waitingTime="0.00" waitingCount="0" stopTime="0.00" timeLoss="13.26" rerouteNo="1" devices="tripinfo_S5R_frequency1.2 routing_S5R_frequency1.2 emissions_S5R_frequency1.2" vType="bus" speedFactor="1.00" vaporized="">
        <emissions CO_abs="1983.124404" CO2_abs="1279616.474804" HC_abs="409.596653" PMx_abs="213.025034" NOx_abs="9836.252313" fuel_abs="545.747957" electricity_abs="0"/>
    </tripinfo>
    <tripinfo id="h3688c1:1" depart="57625.00" departLane="201201950#1_1" departPos="5.10" departSpeed="0.00" departDelay="0.00" arrival="57720.00" arrivalLane="32978638#0_1" arrivalPos="49.29" arrivalSpeed="14.03" duration="95.00" routeLength="1089.75" waitingTime="6.00" waitingCount="1" stopTime="0.00" timeLoss="19.59" rerouteNo="1" devices="tripinfo_h3688c1:1 routing_h3688c1:1 emissions_h3688c1:1" vType="default_016" speedFactor="1.06" vaporized="">
        <emissions CO_abs="3906.147572" CO2_abs="275564.260216" HC_abs="24.229529" PMx_abs="4.934554" NOx_abs="112.099424" fuel_abs="118.452993" electricity_abs="0"/>
    </tripinfo>
    <tripinfo id="carIn80064:1" depart="57603.00" departLane="128361109#1_1" departPos="5.10" departSpeed="0.00" departDelay="0.40" arrival="57726.00" arrivalLane="-315358254#1_1" arrivalPos="137.16" arrivalSpeed="13.29" duration="123.00" routeLength="1587.97" waitingTime="5.00" waitingCount="1" stopTime="0.00" timeLoss="30.61" rerouteNo="1" devices="tripinfo_carIn80064:1 routing_carIn80064:1 emissions_carIn80064:1" vType="default_016" speedFactor="0.97" vaporized="">
        <emissions CO_abs="6641.208625" CO2_abs="456440.434646" HC_abs="41.131017" PMx_abs="8.918969" NOx_abs="189.156972" fuel_abs="196.202888" electricity_abs="0"/>
    </tripinfo>
    <tripinfo id="h7800c1:5" depart="57696.00" departLane="-447569998#1_1" departPos="5.10" departSpeed="0.00" departDelay="0.00" arrival="57726.00" arrivalLane="-447569998#1_1" arrivalPos="180.76" arrivalSpeed="6.21" duration="30.00" routeLength="175.66" waitingTime="0.00" waitingCount="0" stopTime="0.00" timeLoss="4.11" rerouteNo="1" devices="tripinfo_h7800c1:5 routing_h7800c1:5 emissions_h7800c1:5" vType="default_016" speedFactor="0.83" vaporized="">
        <emissions CO_abs="1578.013615" CO2_abs="57026.728207" HC_abs="8.480779" PMx_abs="0.918164" NOx_abs="23.207268" fuel_abs="24.514039" electricity_abs="0"/>
    </tripinfo>
    <tripinfo id="h3568c1:3" depart="57656.00" departLane="266565295#5_1" departPos="5.10" departSpeed="0.00" departDelay="0.80" arrival="57727.00" arrivalLane="-24634415_1" arrivalPos="62.03" arrivalSpeed="15.32" duration="71.00" routeLength="807.40" waitingTime="0.00" waitingCount="0" stopTime="0.00" timeLoss="13.46" rerouteNo="1" devices="tripinfo_h3568c1:3 routing_h3568c1:3 emissions_h3568c1:3" vType="default_016" speedFactor="1.13" vaporized="">
        <emissions CO_abs="3410.203231" CO2_abs="236146.029112" HC_abs="20.963787" PMx_abs="4.121606" NOx_abs="95.414380" fuel_abs="101.509025" electricity_abs="0"/>
    </tripinfo>
    <tripinfo id="h9563c2:5" depart="57631.00" departLane="315358244_1" departPos="5.10" departSpeed="0.00" departDelay="0.70" arrival="57735.00" arrivalLane="386687235_1" arrivalPos="80.84" arrivalSpeed="11.42" duration="104.00" routeLength="1186.14" waitingTime="0.00" waitingCount="0" stopTime="0.00" timeLoss="8.83" rerouteNo="1" devices="tripinfo_h9563c2:5 routing_h9563c2:5 emissions_h9563c2:5" vType="default_016" speedFactor="0.91" vaporized="">
        <emissions CO_abs="2730.685217" CO2_abs="231037.557637" HC_abs="17.775895" PMx_abs="3.419343" NOx_abs="89.438587" fuel_abs="99.313549" electricity_abs="0"/>
    </tripinfo>
    <tripinfo id="h4538c1:1" depart="57701.00" departLane="-10427692#1_1" departPos="5.10" departSpeed="0.00" departDelay="0.00" arrival="57744.00" arrivalLane="-128361102#1_1" arrivalPos="274.68" arrivalSpeed="14.82" duration="43.00" routeLength="440.74" waitingTime="3.00" waitingCount="1" stopTime="0.00" timeLoss="13.59" rerouteNo="1" devices="tripinfo_h4538c1:1 routing_h4538c1:1 emissions_h4538c1:1" vType="default_016" speedFactor="1.09" vaporized="">
        <emissions CO_abs="1832.697798" CO2_abs="119770.872869" HC_abs="11.083831" PMx_abs="2.044218" NOx_abs="48.041151" fuel_abs="51.484512" electricity_abs="0"/>
    </tripinfo>
    <tripinfo id="h317c2:1" depart="57707.00" departLane="-32978638#0_1" departPos="5.10" departSpeed="0.00" departDelay="0.10" arrival="57745.00" arrivalLane="-266565295#5_1" arrivalPos="172.76" arrivalSpeed="13.36" duration="38.00" routeLength="370.53" waitingTime="1.00" waitingCount="1" stopTime="0.00" timeLoss="10.43" rerouteNo="1" devices="tripinfo_h317c2:1 routing_h317c2:1 emissions_h317c2:1" vType="default_016" speedFactor="1.01" vaporized="">
        <emissions CO_abs="2028.256299" CO2_abs="120513.721903" HC_abs="12.067607" PMx_abs="2.142369" NOx_abs="49.311935" fuel_abs="51.803828" electricity_abs="0"/>
    </tripinfo>
    <tripinfo id="carIn22761:1" depart="57616.00" departLane="-306240162#1_0" departPos="5.10" departSpeed="0.00" departDelay="2.10" arrival="57746.00" arrivalLane="399835085#1_1" arrivalPos="212.23" arrivalSpeed="7.18" duration="130.00" routeLength="1093.26" waitingTime="33.00" waitingCount="1" stopTime="0.00" timeLoss="48.75" rerouteNo="1" devices="tripinfo_carIn22761:1 routing_carIn22761:1 emissions_carIn22761:1" vType="default_016" speedFactor="0.96" vaporized="">
        <emissions CO_abs="8644.375616" CO2_abs="336864.163277" HC_abs="47.316543" PMx_abs="6.641215" NOx_abs="140.591372" fuel_abs="144.805567" electricity_abs="0"/>
    </tripinfo>
    <tripinfo id="h645c1:1" depart="57622.00" departLane="266565295#5_1" departPos="5.10" departSpeed="0.00" departDelay="0.40" arrival="57748.00" arrivalLane="-315358244_1" arrivalPos="33.95" arrivalSpeed="16.58" duration="126.00" routeLength="1910.83" waitingTime="0.00" waitingCount="0" stopTime="0.00" timeLoss="15.83" rerouteNo="1" devices="tripinfo_h645c1:1 routing_h645c1:1 emissions_h645c1:1" vType="default_016" speedFactor="1.26" vaporized="">
        <emissions CO_abs="4188.214824" CO2_abs="381156.237643" HC_abs="27.733445" PMx_abs="6.599156" NOx_abs="150.148134" fuel_abs="163.841963" electricity_abs="0"/>
    </tripinfo>
    <tripinfo id="carIn30817:1" depart="57681.00" departLane="315358244_1" departPos="5.10" departSpeed="0.00" departDelay="0.20" arrival="57756.00" arrivalLane="447569997#1_1" arrivalPos="180.93" arrivalSpeed="6.75" duration="75.00" routeLength="718.04" waitingTime="0.00" waitingCount="0" stopTime="0.00" timeLoss="8.58" rerouteNo="1" devices="tripinfo_carIn30817:1 routing_carIn30817:1 emissions_carIn30817:1" vType="default_016" speedFactor="0.93" vaporized="">
        <emissions CO_abs="2338.780861" CO2_abs="155281.232389" HC_abs="14.223788" PMx_abs="2.324122" NOx_abs="60.653638" fuel_abs="66.749371" electricity_abs="0"/>
    </tripinfo>
    <tripinfo id="h7181c1:1" depart="57660.00" departLane="315358254#0_1" departPos="5.10" departSpeed="0.00" departDelay="0.10" arrival="57765.00" arrivalLane="306240162#0_0" arrivalPos="220.43" arrivalSpeed="11.33" duration="105.00" routeLength="932.35" waitingTime="19.00" waitingCount="2" stopTime="0.00" timeLoss="36.80" rerouteNo="1" devices="tripinfo_h7181c1:1 routing_h7181c1:1 emissions_h7181c1:1" vType="default_016" speedFactor="0.75" vaporized="">
        <emissions CO_abs="5634.381178" CO2_abs="262132.435083" HC_abs="31.818909" PMx_abs="4.899270" NOx_abs="108.668514" fuel_abs="112.680507" electricity_abs="0"/>
    </tripinfo>
    <tripinfo id="carIn27009:1" depart="57673.00" departLane="-447569998#1_1" departPos="5.10" departSpeed="0.00" departDelay="0.50" arrival="57768.00" arrivalLane="-26677539_1" arrivalPos="152.75" arrivalSpeed="8.24" duration="95.00" routeLength="699.63" waitingTime="4.00" waitingCount="1" stopTime="0.00" timeLoss="18.27" rerouteNo="1" devices="tripinfo_carIn27009:1 routing_carIn27009:1 emissions_carIn27009:1" vType="default_015" speedFactor="1.09" vaporized="">
        <emissions CO_abs="3694.174024" CO2_abs="176375.775610" HC_abs="20.895299" PMx_abs="2.967338" NOx_abs="72.151054" fuel_abs="75.817365" electricity_abs="0"/>
    </tripinfo>
    <tripinfo id="h3326c1:2" depart="57656.00" departLane="22716069#0_1" departPos="5.10" departSpeed="0.00" departDelay="0.00" arrival="57772.00" arrivalLane="24634517#13_1" arrivalPos="111.62" arrivalSpeed="12.32" duration="116.00" routeLength="1312.81" waitingTime="0.00" waitingCount="0" stopTime="0.00" timeLoss="14.85" rerouteNo="1" devices="tripinfo_h3326c1:2 routing_h3326c1:2 emissions_h3326c1:2" vType="default_016" speedFactor="0.97" vaporized="">
        <emissions CO_abs="4152.399244" CO2_abs="319422.939986" HC_abs="26.364233" PMx_abs="5.237594" NOx_abs="127.193220" fuel_abs="137.306308" electricity_abs="0"/>
    </tripinfo>
    <tripinfo id="h330c1:1" depart="57736.00" departLane="-32978638#0_1" departPos="5.10" departSpeed="0.00" departDelay="0.20" arrival="57777.00" arrivalLane="-266565295#5_1" arrivalPos="172.76" arrivalSpeed="11.39" duration="41.00" routeLength="370.53" waitingTime="2.00" waitingCount="1" stopTime="0.00" timeLoss="10.63" rerouteNo="1" devices="tripinfo_h330c1:1 routing_h330c1:1 emissions_h330c1:1" vType="default_016" speedFactor="0.91" vaporized="">
        <emissions CO_abs="1991.390234" CO2_abs="110225.548521" HC_abs="11.654757" PMx_abs="1.984945" NOx_abs="45.529186" fuel_abs="47.381422" electricity_abs="0"/>
    </tripinfo>
    <tripinfo id="carIn118591:1" depart="57689.00" departLane="315358244_1" departPos="5.10" departSpeed="0.00" departDelay="0.20" arrival="57781.00" arrivalLane="386687235_1" arrivalPos="80.84" arrivalSpeed="13.53" duration="92.00" routeLength="1186.14" waitingTime="0.00" waitingCount="0" stopTime="0.00" timeLoss="8.30" rerouteNo="1" devices="tripinfo_carIn118591:1 routing_carIn118591:1 emissions_carIn118591:1" vType="default_016" speedFactor="1.04" vaporized="">
        <emissions CO_abs="2462.628731" CO2_abs="213549.299702" HC_abs="16.228121" PMx_abs="3.512011" NOx_abs="84.445518" fuel_abs="91.795528" electricity_abs="0"/>
    </tripinfo>
    <tripinfo id="carIn28951:1" depart="57606.00" departLane="10425609#0_1" departPos="5.10" departSpeed="0.00" departDelay="0.20" arrival="57786.00" arrivalLane="-128361102#1_1" arrivalPos="274.68" arrivalSpeed="12.83" duration="180.00" routeLength="2113.04" waitingTime="3.00" waitingCount="1" stopTime="0.00" timeLoss="26.19" rerouteNo="1" devices="tripinfo_carIn28951:1 routing_carIn28951:1 emissions_carIn28951:1" vType="default_016" speedFactor="1.01" vaporized="">
        <emissions CO_abs="5885.269407" CO2_abs="466928.714233" HC_abs="37.680639" PMx_abs="7.761554" NOx_abs="186.025771" fuel_abs="200.712485" electricity_abs="0"/>
    </tripinfo>
    <tripinfo id="h3154c1:1" depart="57658.00" departLane="24634507_1" departPos="5.10" departSpeed="0.00" departDelay="0.00" arrival="57789.00" arrivalLane="-266565295#5_1" arrivalPos="172.76" arrivalSpeed="11.25" duration="131.00" routeLength="1206.22" waitingTime="11.00" waitingCount="2" stopTime="0.00" timeLoss="31.90" rerouteNo="1" devices="tripinfo_h3154c1:1 routing_h3154c1:1 emissions_h3154c1:1" vType="default_016" speedFactor="0.89" vaporized="">
        <emissions CO_abs="4594.708425" CO2_abs="289142.339295" HC_abs="27.672946" PMx_abs="4.898357" NOx_abs="117.098198" fuel_abs="124.290346" electricity_abs="0"/>
    </tripinfo>
    <tripinfo id="carIn86816:1" depart="57617.00" departLane="128361102#0_1" departPos="5.10" departSpeed="0.00" departDelay="0.80" arrival="57791.00" arrivalLane="201956811#0_1" arrivalPos="40.40" arrivalSpeed="13.76" duration="174.00" routeLength="2067.33" waitingTime="2.00" waitingCount="2" stopTime="0.00" timeLoss="24.29" rerouteNo="1" devices="tripinfo_carIn86816:1 routing_carIn86816:1 emissions_carIn86816:1" vType="default_016" speedFactor="1.01" vaporized="">
        <emissions CO_abs="5623.961882" CO2_abs="462100.704072" HC_abs="36.259790" PMx_abs="7.316298" NOx_abs="181.058027" fuel_abs="198.637578" electricity_abs="0"/>
    </tripinfo>
    <tripinfo id="carIn50326:1" depart="57651.00" departLane="128361102#0_1" departPos="5.10" departSpeed="0.00" departDelay="0.30" arrival="57791.00" arrivalLane="18809673#0_1" arrivalPos="473.56" arrivalSpeed="14.28" duration="140.00" routeLength="1591.07" waitingTime="0.00" waitingCount="0" stopTime="0.00" timeLoss="18.55" rerouteNo="1" devices="tripinfo_carIn50326:1 routing_carIn50326:1 emissions_carIn50326:1" vType="default_016" speedFactor="1.07" vaporized="">
        <emissions CO_abs="4722.230803" CO2_abs="350451.718770" HC_abs="29.632503" PMx_abs="5.755774" NOx_abs="139.354184" fuel_abs="150.644402" electricity_abs="0"/>
    </tripinfo>
    <tripinfo id="carIn12365:1" depart="57713.00" departLane="315358244_1" departPos="5.10" departSpeed="0.00" departDelay="0.50" arrival="57792.00" arrivalLane="447569997#1_1" arrivalPos="180.93" arrivalSpeed="7.16" duration="79.00" routeLength="718.04" waitingTime="4.00" waitingCount="1" stopTime="0.00" timeLoss="14.94" rerouteNo="1" devices="tripinfo_carIn12365:1 routing_carIn12365:1 emissions_carIn12365:1" vType="default_016" speedFactor="0.96" vaporized="">
        <emissions CO_abs="2702.951820" CO2_abs="153146.631598" HC_abs="15.854897" PMx_abs="2.488997" NOx_abs="61.347143" fuel_abs="65.831801" electricity_abs="0"/>
    </tripinfo>
    <tripinfo id="h11737c1:1" depart="57665.00" departLane="272042143_1" departPos="5.10" departSpeed="0.00" departDelay="1.50" arrival="57796.00" arrivalLane="-315358254#1_1" arrivalPos="137.16" arrivalSpeed="12.81" duration="131.00" routeLength="1596.88" waitingTime="0.00" waitingCount="0" stopTime="0.00" timeLoss="13.61" rerouteNo="1" devices="tripinfo_h11737c1:1 routing_h11737c1:1 emissions_h11737c1:1" vType="default_016" speedFactor="1.00" vaporized="">
        <emissions CO_abs="3751.214134" CO2_abs="319053.851913" HC_abs="24.498026" PMx_abs="5.065644" NOx_abs="125.219557" fuel_abs="137.147641" electricity_abs="0"/>
    </tripinfo>
    <tripinfo id="carIn129809:1" depart="57729.00" departLane="-447569998#1_1" departPos="5.10" departSpeed="0.00" departDelay="1.00" arrival="57797.00" arrivalLane="-315358244_1" arrivalPos="33.95" arrivalSpeed="13.06" duration="68.00" routeLength="706.49" waitingTime="0.00" waitingCount="0" stopTime="0.00" timeLoss="7.70" rerouteNo="1" devices="tripinfo_carIn129809:1 routing_carIn129809:1 emissions_carIn129809:1" vType="default_015" speedFactor="1.00" vaporized="">
        <emissions CO_abs="2356.848827" CO2_abs="155204.648553" HC_abs="14.348338" PMx_abs="2.549196" NOx_abs="62.020459" fuel_abs="66.716128" electricity_abs="0"/>
    </tripinfo>
    <tripinfo id="carIn126288:1" depart="57674.00" departLane="272042143_1" departPos="5.10" departSpeed="0.00" departDelay="0.00" arrival="57798.00" arrivalLane="-315358254#1_1" arrivalPos="137.16" arrivalSpeed="13.70" duration="124.00" routeLength="1596.88" waitingTime="0.00" waitingCount="0" stopTime="0.00" timeLoss="14.05" rerouteNo="1" devices="tripinfo_carIn126288:1 routing_carIn126288:1 emissions_carIn126288:1" vType="default_016" speedFactor="1.07" vaporized="">
        <emissions CO_abs="3701.711149" CO2_abs="335482.890547" HC_abs="24.612691" PMx_abs="5.374965" NOx_abs="131.253751" fuel_abs="144.209565" electricity_abs="0"/>
    </tripinfo>
    <tripinfo id="carIn107282:1" depart="57749.00" departLane="-447569998#1_1" departPos="5.10" departSpeed="0.00" departDelay="0.00" arrival="57798.00" arrivalLane="315358242#0_1" arrivalPos="165.37" arrivalSpeed="13.14" duration="49.00" routeLength="448.50" waitingTime="0.00" waitingCount="0" stopTime="0.00" timeLoss="4.62" rerouteNo="1" devices="tripinfo_carIn107282:1 routing_carIn107282:1 emissions_carIn107282:1" vType="default_016" speedFactor="0.95" vaporized="">
        <emissions CO_abs="1846.307937" CO2_abs="111998.091318" HC_abs="10.979155" PMx_abs="1.692076" NOx_abs="44.002097" fuel_abs="48.143726" electricity_abs="0"/>
    </tripinfo>
    <tripinfo id="h5979c1:5" depart="57669.00" departLane="399835085#1_1" departPos="5.10" departSpeed="0.00" departDelay="0.00" arrival="57801.00" arrivalLane="-315358254#1_1" arrivalPos="137.16" arrivalSpeed="12.78" duration="132.00" routeLength="659.33" waitingTime="42.00" waitingCount="2" stopTime="0.00" timeLoss="58.91" rerouteNo="1" devices="tripinfo_h5979c1:5 routing_h5979c1:5 emissions_h5979c1:5" vType="default_016" speedFactor="1.00" vaporized="">
        <emissions CO_abs="9296.269750" CO2_abs="264640.293322" HC_abs="48.465904" PMx_abs="5.124719" NOx_abs="112.083200" fuel_abs="113.761226" electricity_abs="0"/>
    </tripinfo>
    <tripinfo id="carIn48184:1" depart="57613.00" departLane="-306240162#1_0" departPos="5.10" departSpeed="0.00" departDelay="0.70" arrival="57803.00" arrivalLane="386687235_1" arrivalPos="80.84" arrivalSpeed="12.44" duration="190.00" routeLength="2257.41" waitingTime="13.00" waitingCount="2" stopTime="0.00" timeLoss="40.31" rerouteNo="1" devices="tripinfo_carIn48184:1 routing_carIn48184:1 emissions_carIn48184:1" vType="default_016" speedFactor="0.99" vaporized="">
        <emissions CO_abs="7392.845481" CO2_abs="524561.582843" HC_abs="46.012792" PMx_abs="9.378478" NOx_abs="211.700346" fuel_abs="225.486188" electricity_abs="0"/>
    </tripinfo>
    <tripinfo id="carIn462:1" depart="57622.00" departLane="-306240162#1_0" departPos="5.10" departSpeed="0.00" departDelay="4.80" arrival="57803.00" arrivalLane="386687235_2" arrivalPos="80.84" arrivalSpeed="15.11" duration="181.00" routeLength="2257.41" waitingTime="3.00" waitingCount="1" stopTime="0.00" timeLoss="47.60" rerouteNo="1" devices="tripinfo_carIn462:1 routing_carIn462:1 emissions_carIn462:1" vType="default_016" speedFactor="1.11" vaporized="">
        <emissions CO_abs="7755.330273" CO2_abs="560312.222301" HC_abs="48.574634" PMx_abs="10.329342" NOx_abs="229.115973" fuel_abs="240.853137" electricity_abs="0"/>
    </tripinfo>
    <tripinfo id="carIn82220:1" depart="57619.00" departLane="-306240162#1_0" departPos="5.10" departSpeed="0.00" departDelay="3.50" arrival="57805.00" arrivalLane="386687235_1" arrivalPos="80.84" arrivalSpeed="12.01" duration="186.00" routeLength="2257.41" waitingTime="2.00" waitingCount="1" stopTime="0.00" timeLoss="24.74" rerouteNo="1" devices="tripinfo_carIn82220:1 routing_carIn82220:1 emissions_carIn82220:1" vType="default_016" speedFactor="0.92" vaporized="">
        <emissions CO_abs="5885.900310" CO2_abs="480916.598807" HC_abs="37.866777" PMx_abs="7.800970" NOx_abs="189.001954" fuel_abs="206.725533" electricity_abs="0"/>
    </tripinfo>
    <tripinfo id="carIn102915:1" depart="57643.00" departLane="128361102#0_1" departPos="5.10" departSpeed="0.00" departDelay="0.40" arrival="57810.00" arrivalLane="201956811#0_1" arrivalPos="40.40" arrivalSpeed="13.74" duration="167.00" routeLength="2067.33" waitingTime="0.00" waitingCount="0" stopTime="0.00" timeLoss="17.24" rerouteNo="1" devices="tripinfo_carIn102915:1 routing_carIn102915:1 emissions_carIn102915:1" vType="default_016" speedFactor="1.01" vaporized="">
        <emissions CO_abs="4856.542728" CO2_abs="418400.403896" HC_abs="31.855702" PMx_abs="6.738970" NOx_abs="164.781758" fuel_abs="179.852290" electricity_abs="0"/>
    </tripinfo>
    <tripinfo id="carIn82278:1" depart="57702.00" departLane="-306240162#1_0" departPos="5.10" departSpeed="0.00" departDelay="0.70" arrival="57812.00" arrivalLane="399835085#1_1" arrivalPos="212.23" arrivalSpeed="6.45" duration="110.00" routeLength="1093.26" waitingTime="1.00" waitingCount="1" stopTime="0.00" timeLoss="17.72" rerouteNo="1" devices="tripinfo_carIn82278:1 routing_carIn82278:1 emissions_carIn82278:1" vType="default_016" speedFactor="0.84" vaporized="">
        <emissions CO_abs="4276.732928" CO2_abs="240830.192026" HC_abs="25.136829" PMx_abs="4.318526" NOx_abs="98.577642" fuel_abs="103.523022" electricity_abs="0"/>
    </tripinfo>
    <tripinfo id="carIn77943:1" depart="57608.00" departLane="124812856#0_1" departPos="5.10" departSpeed="0.00" departDelay="2.50" arrival="57814.00" arrivalLane="-128361102#1_1" arrivalPos="274.68" arrivalSpeed="12.01" duration="206.00" routeLength="2250.49" waitingTime="0.00" waitingCount="0" stopTime="0.00" timeLoss="25.96" rerouteNo="1" devices="tripinfo_carIn77943:1 routing_carIn77943:1 emissions_carIn77943:1" vType="default_016" speedFactor="0.91" vaporized="">
        <emissions CO_abs="5672.025866" CO2_abs="445264.171293" HC_abs="36.140577" PMx_abs="6.792059" NOx_abs="174.220953" fuel_abs="191.400749" electricity_abs="0"/>
    </tripinfo>
    <tripinfo id="carIn81046:1" depart="57611.00" departLane="124812856#0_1" departPos="5.10" departSpeed="0.00" departDelay="2.50" arrival="57816.00" arrivalLane="-128361102#1_1" arrivalPos="274.68" arrivalSpeed="13.84" duration="205.00" routeLength="2250.49" waitingTime="0.00" waitingCount="0" stopTime="0.00" timeLoss="51.87" rerouteNo="1" devices="tripinfo_carIn81046:1 routing_carIn81046:1 emissions_carIn81046:1" vType="default_016" speedFactor="1.08" vaporized="">
        <emissions CO_abs="7416.628935" CO2_abs="538634.822017" HC_abs="46.370612" PMx_abs="9.120932" NOx_abs="217.099580" fuel_abs="231.535986" electricity_abs="0"/>
    </tripinfo>
    <tripinfo id="carIn77438:1" depart="57614.00" departLane="124812856#0_1" departPos="5.10" departSpeed="0.00" departDelay="1.10" arrival="57817.00" arrivalLane="-128361102#1_1" arrivalPos="274.68" arrivalSpeed="13.90" duration="203.00" routeLength="2250.49" waitingTime="0.00" waitingCount="0" stopTime="0.00" timeLoss="43.54" rerouteNo="1" devices="tripinfo_carIn77438:1 routing_carIn77438:1 emissions_carIn77438:1" vType="default_016" speedFactor="1.03" vaporized="">
        <emissions CO_abs="7854.736589" CO2_abs="553926.357202" HC_abs="48.789171" PMx_abs="9.734555" NOx_abs="225.832191" fuel_abs="238.108787" electricity_abs="0"/>
    </tripinfo>
    <tripinfo id="h17600c1:1" depart="57662.00" departLane="272042143_1" departPos="5.10" departSpeed="0.00" departDelay="0.30" arrival="57817.00" arrivalLane="201238729#3_1" arrivalPos="431.02" arrivalSpeed="14.53" duration="155.00" routeLength="2100.26" waitingTime="0.00" waitingCount="0" stopTime="0.00" timeLoss="12.71" rerouteNo="1" devices="tripinfo_h17600c1:1 routing_h17600c1:1 emissions_h17600c1:1" vType="default_016" speedFactor="1.07" vaporized="">
        <emissions CO_abs="3297.910238" CO2_abs="359972.213673" HC_abs="23.263393" PMx_abs="5.326700" NOx_abs="136.848742" fuel_abs="154.736674" electricity_abs="0"/>
    </tripinfo>
    <tripinfo id="h19804c1:3" depart="57617.00" departLane="124812856#0_1" departPos="5.10" departSpeed="0.00" departDelay="1.50" arrival="57820.00" arrivalLane="-128361102#1_1" arrivalPos="274.68" arrivalSpeed="12.26" duration="203.00" routeLength="2250.49" waitingTime="0.00" waitingCount="0" stopTime="0.00" timeLoss="31.92" rerouteNo="1" devices="tripinfo_h19804c1:3 routing_h19804c1:3 emissions_h19804c1:3" vType="default_016" speedFactor="0.96" vaporized="">
        <emissions CO_abs="7062.023978" CO2_abs="522763.294834" HC_abs="44.375233" PMx_abs="8.630086" NOx_abs="209.041486" fuel_abs="224.713750" electricity_abs="0"/>
    </tripinfo>
    <tripinfo id="carIn107842:1" depart="57623.00" departLane="124812856#0_1" departPos="5.10" departSpeed="0.00" departDelay="1.90" arrival="57821.00" arrivalLane="-128361102#1_1" arrivalPos="274.68" arrivalSpeed="13.03" duration="198.00" routeLength="2250.49" waitingTime="0.00" waitingCount="0" stopTime="0.00" timeLoss="28.21" rerouteNo="1" devices="tripinfo_carIn107842:1 routing_carIn107842:1 emissions_carIn107842:1" vType="default_016" speedFactor="0.97" vaporized="">
        <emissions CO_abs="6001.903928" CO2_abs="460311.477092" HC_abs="38.060962" PMx_abs="7.388079" NOx_abs="182.259237" fuel_abs="197.868548" electricity_abs="0"/>
    </tripinfo>
    <tripinfo id="carIn81860:1" depart="57712.00" departLane="128361102#0_1" departPos="5.10" departSpeed="0.00" departDelay="0.60" arrival="57824.00" arrivalLane="-24634517#17_1" arrivalPos="6.43" arrivalSpeed="8.01" duration="112.00" routeLength="1229.64" waitingTime="7.00" waitingCount="1" stopTime="0.00" timeLoss="24.57" rerouteNo="1" devices="tripinfo_carIn81860:1 routing_carIn81860:1 emissions_carIn81860:1" vType="default_016" speedFactor="1.04" vaporized="">
        <emissions CO_abs="4144.585268" CO2_abs="276229.530194" HC_abs="25.242725" PMx_abs="4.725085" NOx_abs="110.951151" fuel_abs="118.739489" electricity_abs="0"/>
    </tripinfo>
    <tripinfo id="carIn12152:1" depart="57647.00" departLane="24599188#0.94_1" departPos="5.10" departSpeed="0.00" departDelay="0.50" arrival="57827.00" arrivalLane="-315358254#1_1" arrivalPos="137.16" arrivalSpeed="13.89" duration="180.00" routeLength="2034.31" waitingTime="5.00" waitingCount="1" stopTime="0.00" timeLoss="23.77" rerouteNo="1" devices="tripinfo_carIn12152:1 routing_carIn12152:1 emissions_carIn12152:1" vType="default_016" speedFactor="1.02" vaporized="">
        <emissions CO_abs="5164.278687" CO2_abs="404058.063417" HC_abs="32.912608" PMx_abs="6.450803" NOx_abs="159.148374" fuel_abs="173.687593" electricity_abs="0"/>
    </tripinfo>
    <tripinfo id="randUni33724:1" depart="57646.00" departLane="128361102#0_1" departPos="5.10" departSpeed="0.00" departDelay="1.20" arrival="57829.00" arrivalLane="201956811#0_1" arrivalPos="40.40" arrivalSpeed="12.67" duration="183.00" routeLength="2067.33" waitingTime="0.00" waitingCount="0" stopTime="0.00" timeLoss="17.99" rerouteNo="1" devices="tripinfo_randUni33724:1 routing_randUni33724:1 emissions_randUni33724:1" vType="random_016" speedFactor="0.92" vaporized="">
        <emissions CO_abs="5120.817983" CO2_abs="407464.552963" HC_abs="32.783041" PMx_abs="6.337127" NOx_abs="160.066011" fuel_abs="175.152019" electricity_abs="0"/>
    </tripinfo>