<?xml version="1.0" encoding="UTF-8"?>

<!-- generated on 2021-10-26 12:22:28 by Eclipse SUMO sumo Version 1.10.0
<configuration xmlns:xsi="http://www.w3.org/2001/XMLSchema-instance" xsi:noNamespaceSchemaLocation="http://sumo.dlr.de/xsd/sumoConfiguration.xsd">

    <input>
        <net-file value="/Users/behradkoohy/sumo-scratchpad/RESCO/environments/ingolstadt21/ingolstadt21.net.xml"/>
        <route-files value="/Users/behradkoohy/sumo-scratchpad/RESCO/environments/ingolstadt21/ingolstadt21.rou.xml"/>
    </input>

    <output>
        <tripinfo-output value="/Users/behradkoohy/sumo-scratchpad/RESCO/logs/MAXWAVE-tr0-ingolstadt21-21-wave-wait/tripinfo_94.xml"/>
        <tripinfo-output.write-unfinished value="true"/>
    </output>

    <time>
        <begin value="57600"/>
        <end value="61200"/>
    </time>

    <processing>
        <time-to-teleport value="-1"/>
    </processing>

    <report>
        <no-warnings value="true"/>
        <no-step-log value="true"/>
    </report>

    <emissions>
        <device.emissions.probability value="1"/>
    </emissions>

    <traci_server>
        <remote-port value="58200"/>
    </traci_server>

    <random_number>
        <random value="true"/>
    </random_number>

</configuration>
-->

<tripinfos xmlns:xsi="http://www.w3.org/2001/XMLSchema-instance" xsi:noNamespaceSchemaLocation="http://sumo.dlr.de/xsd/tripinfo_file.xsd">
    <tripinfo id="h15454c2:3" depart="57612.00" departLane="24608844_1" departPos="5.10" departSpeed="0.00" departDelay="0.50" arrival="57650.00" arrivalLane="32978638#0_1" arrivalPos="49.29" arrivalSpeed="14.97" duration="38.00" routeLength="354.79" waitingTime="0.00" waitingCount="0" stopTime="0.00" timeLoss="6.22" rerouteNo="1" devices="tripinfo_h15454c2:3 routing_h15454c2:3 emissions_h15454c2:3" vType="default_016" speedFactor="1.09" vaporized="">
        <emissions CO_abs="2074.590663" CO2_abs="122289.750192" HC_abs="12.309738" PMx_abs="2.182563" NOx_abs="50.324366" fuel_abs="52.567244" electricity_abs="0"/>
    </tripinfo>
    <tripinfo id="carIn60260:1" depart="57606.00" departLane="315358254#0_1" departPos="5.10" departSpeed="0.00" departDelay="0.90" arrival="57667.00" arrivalLane="399835085#1_1" arrivalPos="212.23" arrivalSpeed="6.48" duration="61.00" routeLength="430.98" waitingTime="0.00" waitingCount="0" stopTime="0.00" timeLoss="7.08" rerouteNo="1" devices="tripinfo_carIn60260:1 routing_carIn60260:1 emissions_carIn60260:1" vType="default_016" speedFactor="0.85" vaporized="">
        <emissions CO_abs="2538.315632" CO2_abs="114312.628194" HC_abs="14.179856" PMx_abs="1.849818" NOx_abs="46.299147" fuel_abs="49.138968" electricity_abs="0"/>
    </tripinfo>
    <tripinfo id="carIn53971:1" depart="57640.00" departLane="272042143_1" departPos="5.10" departSpeed="0.00" departDelay="0.80" arrival="57688.00" arrivalLane="24634414#1_1" arrivalPos="162.19" arrivalSpeed="9.15" duration="48.00" routeLength="493.04" waitingTime="0.00" waitingCount="0" stopTime="0.00" timeLoss="10.10" rerouteNo="1" devices="tripinfo_carIn53971:1 routing_carIn53971:1 emissions_carIn53971:1" vType="default_016" speedFactor="1.20" vaporized="">
        <emissions CO_abs="2609.154570" CO2_abs="156201.744057" HC_abs="15.576890" PMx_abs="2.922773" NOx_abs="65.072242" fuel_abs="67.144360" electricity_abs="0"/>
    </tripinfo>
    <tripinfo id="S5R_frequency1.2" depart="57615.00" departLane="315358250#0_1" departPos="12.10" departSpeed="0.00" departDelay="3.40" arrival="57709.00" arrivalLane="386687235_1" arrivalPos="80.84" arrivalSpeed="13.44" duration="94.00" routeLength="1115.62" waitingTime="0.00" waitingCount="0" stopTime="0.00" timeLoss="12.35" rerouteNo="1" devices="tripinfo_S5R_frequency1.2 routing_S5R_frequency1.2 emissions_S5R_frequency1.2" vType="bus" speedFactor="1.00" vaporized="">
        <emissions CO_abs="1889.853776" CO2_abs="1193243.506460" HC_abs="402.378597" PMx_abs="203.087749" NOx_abs="9228.416247" fuel_abs="508.912877" electricity_abs="0"/>
    </tripinfo>
    <tripinfo id="h12244c1:3" depart="57612.00" departLane="315358244_1" departPos="5.10" departSpeed="0.00" departDelay="0.40" arrival="57719.00" arrivalLane="386687235_1" arrivalPos="80.84" arrivalSpeed="11.07" duration="107.00" routeLength="1186.14" waitingTime="0.00" waitingCount="0" stopTime="0.00" timeLoss="9.78" rerouteNo="1" devices="tripinfo_h12244c1:3 routing_h12244c1:3 emissions_h12244c1:3" vType="default_016" speedFactor="0.89" vaporized="">
        <emissions CO_abs="2901.274400" CO2_abs="227138.209687" HC_abs="18.461334" PMx_abs="3.414674" NOx_abs="88.588724" fuel_abs="97.637451" electricity_abs="0"/>
    </tripinfo>
    <tripinfo id="h7181c1:1" depart="57660.00" departLane="315358254#0_1" departPos="5.10" departSpeed="0.00" departDelay="0.10" arrival="57720.00" arrivalLane="306240162#0_0" arrivalPos="220.43" arrivalSpeed="17.39" duration="60.00" routeLength="932.35" waitingTime="0.00" waitingCount="0" stopTime="0.00" timeLoss="11.86" rerouteNo="1" devices="tripinfo_h7181c1:1 routing_h7181c1:1 emissions_h7181c1:1" vType="default_016" speedFactor="1.08" vaporized="">
        <emissions CO_abs="3727.714150" CO2_abs="265472.508065" HC_abs="23.314115" PMx_abs="5.218294" NOx_abs="108.346993" fuel_abs="114.114527" electricity_abs="0"/>
    </tripinfo>
    <tripinfo id="h7800c1:5" depart="57696.00" departLane="-447569998#1_1" departPos="5.10" departSpeed="0.00" departDelay="0.00" arrival="57721.00" arrivalLane="-447569998#1_1" arrivalPos="180.76" arrivalSpeed="7.60" duration="25.00" routeLength="175.66" waitingTime="0.00" waitingCount="0" stopTime="0.00" timeLoss="3.21" rerouteNo="1" devices="tripinfo_h7800c1:5 routing_h7800c1:5 emissions_h7800c1:5" vType="default_016" speedFactor="0.98" vaporized="">
        <emissions CO_abs="1077.264442" CO2_abs="46284.332951" HC_abs="5.969517" PMx_abs="0.774926" NOx_abs="18.965426" fuel_abs="19.896000" electricity_abs="0"/>
    </tripinfo>
    <tripinfo id="carIn22761:1" depart="57616.00" departLane="-306240162#1_0" departPos="5.10" departSpeed="0.00" departDelay="2.10" arrival="57725.00" arrivalLane="399835085#1_1" arrivalPos="212.23" arrivalSpeed="7.76" duration="109.00" routeLength="1093.26" waitingTime="12.00" waitingCount="1" stopTime="0.00" timeLoss="30.04" rerouteNo="1" devices="tripinfo_carIn22761:1 routing_carIn22761:1 emissions_carIn22761:1" vType="default_016" speedFactor="0.99" vaporized="">
        <emissions CO_abs="5476.691728" CO2_abs="288149.334739" HC_abs="31.771417" PMx_abs="5.431983" NOx_abs="118.478200" fuel_abs="123.863607" electricity_abs="0"/>
    </tripinfo>
    <tripinfo id="h9563c2:5" depart="57631.00" departLane="315358244_1" departPos="5.10" departSpeed="0.00" departDelay="0.70" arrival="57725.00" arrivalLane="386687235_1" arrivalPos="80.84" arrivalSpeed="13.54" duration="94.00" routeLength="1186.14" waitingTime="0.00" waitingCount="0" stopTime="0.00" timeLoss="8.74" rerouteNo="1" devices="tripinfo_h9563c2:5 routing_h9563c2:5 emissions_h9563c2:5" vType="default_016" speedFactor="1.01" vaporized="">
        <emissions CO_abs="2559.117837" CO2_abs="215588.610052" HC_abs="16.676405" PMx_abs="3.467705" NOx_abs="84.858662" fuel_abs="92.672305" electricity_abs="0"/>
    </tripinfo>
    <tripinfo id="h3688c1:1" depart="57625.00" departLane="201201950#1_1" departPos="5.10" departSpeed="0.00" departDelay="0.00" arrival="57733.00" arrivalLane="32978638#0_1" arrivalPos="49.29" arrivalSpeed="11.91" duration="108.00" routeLength="1089.75" waitingTime="7.00" waitingCount="1" stopTime="0.00" timeLoss="23.59" rerouteNo="1" devices="tripinfo_h3688c1:1 routing_h3688c1:1 emissions_h3688c1:1" vType="default_016" speedFactor="0.94" vaporized="">
        <emissions CO_abs="4166.708550" CO2_abs="258057.199692" HC_abs="24.992177" PMx_abs="4.309970" NOx_abs="103.521698" fuel_abs="110.928341" electricity_abs="0"/>
    </tripinfo>
    <tripinfo id="carIn80064:1" depart="57603.00" departLane="128361109#1_1" departPos="5.10" departSpeed="0.00" departDelay="0.40" arrival="57738.00" arrivalLane="-315358254#1_1" arrivalPos="137.16" arrivalSpeed="12.30" duration="135.00" routeLength="1587.97" waitingTime="14.00" waitingCount="2" stopTime="0.00" timeLoss="42.56" rerouteNo="1" devices="tripinfo_carIn80064:1 routing_carIn80064:1 emissions_carIn80064:1" vType="default_016" speedFactor="0.97" vaporized="">
        <emissions CO_abs="7909.453244" CO2_abs="482725.913292" HC_abs="47.564186" PMx_abs="9.505569" NOx_abs="200.727517" fuel_abs="207.502448" electricity_abs="0"/>
    </tripinfo>
    <tripinfo id="h317c2:1" depart="57707.00" departLane="-32978638#0_1" departPos="5.10" departSpeed="0.00" departDelay="0.10" arrival="57744.00" arrivalLane="-266565295#5_1" arrivalPos="172.76" arrivalSpeed="14.83" duration="37.00" routeLength="370.53" waitingTime="2.00" waitingCount="1" stopTime="0.00" timeLoss="11.53" rerouteNo="1" devices="tripinfo_h317c2:1 routing_h317c2:1 emissions_h317c2:1" vType="default_016" speedFactor="1.10" vaporized="">
        <emissions CO_abs="2271.322659" CO2_abs="134445.823393" HC_abs="13.531146" PMx_abs="2.537446" NOx_abs="55.887774" fuel_abs="57.792449" electricity_abs="0"/>
    </tripinfo>
    <tripinfo id="h3568c1:3" depart="57656.00" departLane="266565295#5_1" departPos="5.10" departSpeed="0.00" departDelay="0.80" arrival="57745.00" arrivalLane="-24634415_1" arrivalPos="62.03" arrivalSpeed="10.96" duration="89.00" routeLength="807.40" waitingTime="0.00" waitingCount="0" stopTime="0.00" timeLoss="14.05" rerouteNo="1" devices="tripinfo_h3568c1:3 routing_h3568c1:3 emissions_h3568c1:3" vType="default_016" speedFactor="0.87" vaporized="">
        <emissions CO_abs="3438.207875" CO2_abs="207462.464878" HC_abs="20.465738" PMx_abs="3.368166" NOx_abs="83.167049" fuel_abs="89.179878" electricity_abs="0"/>
    </tripinfo>
    <tripinfo id="h4538c1:1" depart="57701.00" departLane="-10427692#1_1" departPos="5.10" departSpeed="0.00" departDelay="0.00" arrival="57752.00" arrivalLane="-128361102#1_1" arrivalPos="274.68" arrivalSpeed="15.97" duration="51.00" routeLength="440.74" waitingTime="13.00" waitingCount="1" stopTime="0.00" timeLoss="24.00" rerouteNo="1" devices="tripinfo_h4538c1:1 routing_h4538c1:1 emissions_h4538c1:1" vType="default_016" speedFactor="1.19" vaporized="">
        <emissions CO_abs="2892.597480" CO2_abs="146585.129543" HC_abs="16.547843" PMx_abs="2.733576" NOx_abs="60.109651" fuel_abs="63.011065" electricity_abs="0"/>
    </tripinfo>
    <tripinfo id="carIn30817:1" depart="57681.00" departLane="315358244_1" departPos="5.10" departSpeed="0.00" departDelay="0.20" arrival="57755.00" arrivalLane="447569997#1_1" arrivalPos="180.93" arrivalSpeed="7.30" duration="74.00" routeLength="718.04" waitingTime="0.00" waitingCount="0" stopTime="0.00" timeLoss="7.44" rerouteNo="1" devices="tripinfo_carIn30817:1 routing_carIn30817:1 emissions_carIn30817:1" vType="default_016" speedFactor="0.93" vaporized="">
        <emissions CO_abs="2417.853359" CO2_abs="147636.633389" HC_abs="14.428115" PMx_abs="2.364813" NOx_abs="58.918540" fuel_abs="63.463158" electricity_abs="0"/>
    </tripinfo>
    <tripinfo id="h645c1:1" depart="57622.00" departLane="266565295#5_1" departPos="5.10" departSpeed="0.00" departDelay="0.40" arrival="57761.00" arrivalLane="-315358244_1" arrivalPos="33.95" arrivalSpeed="13.73" duration="139.00" routeLength="1910.83" waitingTime="0.00" waitingCount="0" stopTime="0.00" timeLoss="10.15" rerouteNo="1" devices="tripinfo_h645c1:1 routing_h645c1:1 emissions_h645c1:1" vType="default_016" speedFactor="1.08" vaporized="">
        <emissions CO_abs="3085.141117" CO2_abs="319712.170263" HC_abs="21.389345" PMx_abs="4.969587" NOx_abs="123.257145" fuel_abs="137.430348" electricity_abs="0"/>
    </tripinfo>
    <tripinfo id="h5979c1:5" depart="57669.00" departLane="399835085#1_1" departPos="5.10" departSpeed="0.00" departDelay="0.00" arrival="57764.00" arrivalLane="-315358254#1_1" arrivalPos="137.16" arrivalSpeed="11.98" duration="95.00" routeLength="659.33" waitingTime="0.00" waitingCount="0" stopTime="0.00" timeLoss="12.03" rerouteNo="1" devices="tripinfo_h5979c1:5 routing_h5979c1:5 emissions_h5979c1:5" vType="default_016" speedFactor="0.88" vaporized="">
        <emissions CO_abs="4312.408554" CO2_abs="190478.236168" HC_abs="24.004895" PMx_abs="3.102794" NOx_abs="77.378096" fuel_abs="81.879906" electricity_abs="0"/>
    </tripinfo>
    <tripinfo id="h3154c1:1" depart="57658.00" departLane="24634507_1" departPos="5.10" departSpeed="0.00" departDelay="0.00" arrival="57766.00" arrivalLane="-266565295#5_1" arrivalPos="172.76" arrivalSpeed="14.55" duration="108.00" routeLength="1206.22" waitingTime="2.00" waitingCount="2" stopTime="0.00" timeLoss="25.70" rerouteNo="1" devices="tripinfo_h3154c1:1 routing_h3154c1:1 emissions_h3154c1:1" vType="default_016" speedFactor="1.08" vaporized="">
        <emissions CO_abs="4890.833587" CO2_abs="312560.926253" HC_abs="29.584603" PMx_abs="5.671697" NOx_abs="128.188390" fuel_abs="134.356462" electricity_abs="0"/>
    </tripinfo>
    <tripinfo id="carIn86816:1" depart="57617.00" departLane="128361102#0_1" departPos="5.10" departSpeed="0.00" departDelay="0.80" arrival="57772.00" arrivalLane="201956811#0_1" arrivalPos="40.40" arrivalSpeed="14.26" duration="155.00" routeLength="2067.33" waitingTime="0.00" waitingCount="0" stopTime="0.00" timeLoss="16.42" rerouteNo="1" devices="tripinfo_carIn86816:1 routing_carIn86816:1 emissions_carIn86816:1" vType="default_016" speedFactor="1.09" vaporized="">
        <emissions CO_abs="5122.994174" CO2_abs="453980.648986" HC_abs="33.796522" PMx_abs="7.609047" NOx_abs="179.778854" fuel_abs="195.146187" electricity_abs="0"/>
    </tripinfo>
    <tripinfo id="h3326c1:2" depart="57656.00" departLane="22716069#0_1" departPos="5.10" departSpeed="0.00" departDelay="0.00" arrival="57773.00" arrivalLane="24634517#13_1" arrivalPos="111.62" arrivalSpeed="12.41" duration="117.00" routeLength="1312.81" waitingTime="0.00" waitingCount="0" stopTime="0.00" timeLoss="14.93" rerouteNo="1" devices="tripinfo_h3326c1:2 routing_h3326c1:2 emissions_h3326c1:2" vType="default_016" speedFactor="0.96" vaporized="">
        <emissions CO_abs="3911.740738" CO2_abs="287620.761336" HC_abs="24.541300" PMx_abs="4.836538" NOx_abs="115.533819" fuel_abs="123.635847" electricity_abs="0"/>
    </tripinfo>
    <tripinfo id="carIn12365:1" depart="57713.00" departLane="315358244_1" departPos="5.10" departSpeed="0.00" departDelay="0.50" arrival="57773.00" arrivalLane="447569997#1_1" arrivalPos="180.93" arrivalSpeed="8.76" duration="60.00" routeLength="718.04" waitingTime="0.00" waitingCount="0" stopTime="0.00" timeLoss="7.28" rerouteNo="1" devices="tripinfo_carIn12365:1 routing_carIn12365:1 emissions_carIn12365:1" vType="default_016" speedFactor="1.18" vaporized="">
        <emissions CO_abs="1912.042434" CO2_abs="155233.627690" HC_abs="12.193421" PMx_abs="2.446193" NOx_abs="60.389876" fuel_abs="66.728438" electricity_abs="0"/>
    </tripinfo>
    <tripinfo id="h330c1:1" depart="57736.00" departLane="-32978638#0_1" departPos="5.10" departSpeed="0.00" departDelay="0.20" arrival="57775.00" arrivalLane="-266565295#5_1" arrivalPos="172.76" arrivalSpeed="13.07" duration="39.00" routeLength="370.53" waitingTime="1.00" waitingCount="1" stopTime="0.00" timeLoss="10.40" rerouteNo="1" devices="tripinfo_h330c1:1 routing_h330c1:1 emissions_h330c1:1" vType="default_016" speedFactor="0.97" vaporized="">
        <emissions CO_abs="1907.088623" CO2_abs="113765.132965" HC_abs="11.353779" PMx_abs="2.004697" NOx_abs="46.457575" fuel_abs="48.902909" electricity_abs="0"/>
    </tripinfo>
    <tripinfo id="carIn27009:1" depart="57673.00" departLane="-447569998#1_1" departPos="5.10" departSpeed="0.00" departDelay="0.50" arrival="57784.00" arrivalLane="-26677539_1" arrivalPos="152.75" arrivalSpeed="7.06" duration="111.00" routeLength="699.63" waitingTime="11.00" waitingCount="1" stopTime="0.00" timeLoss="27.35" rerouteNo="1" devices="tripinfo_carIn27009:1 routing_carIn27009:1 emissions_carIn27009:1" vType="default_015" speedFactor="1.00" vaporized="">
        <emissions CO_abs="5244.051104" CO2_abs="210934.633623" HC_abs="28.736196" PMx_abs="3.610842" NOx_abs="86.782516" fuel_abs="90.673530" electricity_abs="0"/>
    </tripinfo>
    <tripinfo id="carIn102915:1" depart="57643.00" departLane="128361102#0_1" departPos="5.10" departSpeed="0.00" departDelay="0.40" arrival="57791.00" arrivalLane="201956811#0_1" arrivalPos="40.40" arrivalSpeed="14.84" duration="148.00" routeLength="2067.33" waitingTime="0.00" waitingCount="0" stopTime="0.00" timeLoss="16.75" rerouteNo="1" devices="tripinfo_carIn102915:1 routing_carIn102915:1 emissions_carIn102915:1" vType="default_016" speedFactor="1.15" vaporized="">
        <emissions CO_abs="4965.194972" CO2_abs="439873.896987" HC_abs="32.704639" PMx_abs="7.510749" NOx_abs="174.447438" fuel_abs="189.082160" electricity_abs="0"/>
    </tripinfo>
    <tripinfo id="carIn107282:1" depart="57749.00" departLane="-447569998#1_1" departPos="5.10" departSpeed="0.00" departDelay="0.00" arrival="57792.00" arrivalLane="315358242#0_1" arrivalPos="165.37" arrivalSpeed="14.99" duration="43.00" routeLength="448.50" waitingTime="0.00" waitingCount="0" stopTime="0.00" timeLoss="5.10" rerouteNo="1" devices="tripinfo_carIn107282:1 routing_carIn107282:1 emissions_carIn107282:1" vType="default_016" speedFactor="1.11" vaporized="">
        <emissions CO_abs="1617.073269" CO2_abs="106397.568117" HC_abs="9.789707" PMx_abs="1.771320" NOx_abs="42.608629" fuel_abs="45.735922" electricity_abs="0"/>
    </tripinfo>
    <tripinfo id="carIn28951:1" depart="57606.00" departLane="10425609#0_1" departPos="5.10" departSpeed="0.00" departDelay="0.20" arrival="57796.00" arrivalLane="-128361102#1_1" arrivalPos="274.68" arrivalSpeed="12.30" duration="190.00" routeLength="2113.04" waitingTime="0.00" waitingCount="0" stopTime="0.00" timeLoss="19.02" rerouteNo="1" devices="tripinfo_carIn28951:1 routing_carIn28951:1 emissions_carIn28951:1" vType="default_016" speedFactor="0.91" vaporized="">
        <emissions CO_abs="5313.959176" CO2_abs="435748.850465" HC_abs="34.285433" PMx_abs="6.571755" NOx_abs="169.816522" fuel_abs="187.310437" electricity_abs="0"/>
    </tripinfo>
    <tripinfo id="carIn107084:1" depart="57601.00" departLane="124812856#0_1" departPos="5.10" departSpeed="0.00" departDelay="0.70" arrival="57798.00" arrivalLane="-128361102#1_1" arrivalPos="274.68" arrivalSpeed="13.62" duration="197.00" routeLength="2250.49" waitingTime="3.00" waitingCount="1" stopTime="0.00" timeLoss="31.62" rerouteNo="1" devices="tripinfo_carIn107084:1 routing_carIn107084:1 emissions_carIn107084:1" vType="default_016" speedFactor="0.99" vaporized="">
        <emissions CO_abs="6674.178675" CO2_abs="529573.010332" HC_abs="42.768326" PMx_abs="8.685780" NOx_abs="210.533032" fuel_abs="227.640720" electricity_abs="0"/>
    </tripinfo>
    <tripinfo id="carIn118591:1" depart="57689.00" departLane="315358244_1" departPos="5.10" departSpeed="0.00" departDelay="0.20" arrival="57801.00" arrivalLane="386687235_1" arrivalPos="80.84" arrivalSpeed="11.66" duration="112.00" routeLength="1186.14" waitingTime="0.00" waitingCount="0" stopTime="0.00" timeLoss="10.12" rerouteNo="1" devices="tripinfo_carIn118591:1 routing_carIn118591:1 emissions_carIn118591:1" vType="default_016" speedFactor="0.85" vaporized="">
        <emissions CO_abs="2866.750385" CO2_abs="223577.958900" HC_abs="18.198911" PMx_abs="3.253965" NOx_abs="86.633804" fuel_abs="96.107205" electricity_abs="0"/>
    </tripinfo>
    <tripinfo id="carIn50326:1" depart="57651.00" departLane="128361102#0_1" departPos="5.10" departSpeed="0.00" departDelay="0.30" arrival="57802.00" arrivalLane="18809673#0_1" arrivalPos="473.56" arrivalSpeed="12.49" duration="151.00" routeLength="1591.07" waitingTime="0.00" waitingCount="0" stopTime="0.00" timeLoss="18.52" rerouteNo="1" devices="tripinfo_carIn50326:1 routing_carIn50326:1 emissions_carIn50326:1" vType="default_016" speedFactor="0.98" vaporized="">
        <emissions CO_abs="5111.905796" CO2_abs="348949.185658" HC_abs="31.403854" PMx_abs="5.706618" NOx_abs="139.349225" fuel_abs="149.998848" electricity_abs="0"/>
    </tripinfo>
    <tripinfo id="h11737c1:1" depart="57665.00" departLane="272042143_1" departPos="5.10" departSpeed="0.00" departDelay="1.50" arrival="57807.00" arrivalLane="-315358254#1_1" arrivalPos="137.16" arrivalSpeed="13.32" duration="142.00" routeLength="1596.88" waitingTime="10.00" waitingCount="1" stopTime="0.00" timeLoss="28.02" rerouteNo="1" devices="tripinfo_h11737c1:1 routing_h11737c1:1 emissions_h11737c1:1" vType="default_016" speedFactor="1.02" vaporized="">
        <emissions CO_abs="4934.370104" CO2_abs="350767.352605" HC_abs="30.658618" PMx_abs="5.740396" NOx_abs="138.839349" fuel_abs="150.780352" electricity_abs="0"/>
    </tripinfo>
    <tripinfo id="carIn126288:1" depart="57674.00" departLane="272042143_1" departPos="5.10" departSpeed="0.00" departDelay="0.00" arrival="57809.00" arrivalLane="-315358254#1_1" arrivalPos="137.16" arrivalSpeed="15.06" duration="135.00" routeLength="1596.88" waitingTime="9.00" waitingCount="1" stopTime="0.00" timeLoss="31.71" rerouteNo="1" devices="tripinfo_carIn126288:1 routing_carIn126288:1 emissions_carIn126288:1" vType="default_016" speedFactor="1.13" vaporized="">
        <emissions CO_abs="4969.002016" CO2_abs="369777.842947" HC_abs="31.153719" PMx_abs="6.299663" NOx_abs="147.328278" fuel_abs="158.951630" electricity_abs="0"/>
    </tripinfo>
    <tripinfo id="h17600c1:1" depart="57662.00" departLane="272042143_1" departPos="5.10" departSpeed="0.00" departDelay="0.30" arrival="57810.00" arrivalLane="201238729#3_1" arrivalPos="431.02" arrivalSpeed="14.71" duration="148.00" routeLength="2100.26" waitingTime="0.00" waitingCount="0" stopTime="0.00" timeLoss="10.63" rerouteNo="1" devices="tripinfo_h17600c1:1 routing_h17600c1:1 emissions_h17600c1:1" vType="default_016" speedFactor="1.10" vaporized="">
        <emissions CO_abs="3043.896641" CO2_abs="346798.131960" HC_abs="21.620167" PMx_abs="5.174473" NOx_abs="131.425653" fuel_abs="149.073552" electricity_abs="0"/>
    </tripinfo>
    <tripinfo id="carIn129809:1" depart="57728.00" departLane="-447569998#1_1" departPos="5.10" departSpeed="0.00" departDelay="0.00" arrival="57812.00" arrivalLane="-315358244_1" arrivalPos="33.95" arrivalSpeed="12.41" duration="84.00" routeLength="706.49" waitingTime="3.00" waitingCount="1" stopTime="0.00" timeLoss="21.55" rerouteNo="1" devices="tripinfo_carIn129809:1 routing_carIn129809:1 emissions_carIn129809:1" vType="default_015" speedFactor="0.97" vaporized="">
        <emissions CO_abs="3535.607482" CO2_abs="188371.400517" HC_abs="20.493581" PMx_abs="3.297127" NOx_abs="77.189656" fuel_abs="80.973362" electricity_abs="0"/>
    </tripinfo>
    <tripinfo id="carIn82220:1" depart="57619.00" departLane="-306240162#1_0" departPos="5.10" departSpeed="0.00" departDelay="3.50" arrival="57813.00" arrivalLane="386687235_1" arrivalPos="80.84" arrivalSpeed="14.64" duration="194.00" routeLength="2257.41" waitingTime="14.00" waitingCount="2" stopTime="0.00" timeLoss="54.50" rerouteNo="1" devices="tripinfo_carIn82220:1 routing_carIn82220:1 emissions_carIn82220:1" vType="default_016" speedFactor="1.06" vaporized="">
        <emissions CO_abs="8462.186479" CO2_abs="571107.591725" HC_abs="52.061167" PMx_abs="10.311185" NOx_abs="231.662779" fuel_abs="245.494452" electricity_abs="0"/>
    </tripinfo>
    <tripinfo id="carIn462:1" depart="57622.00" departLane="-306240162#1_0" departPos="5.10" departSpeed="0.00" departDelay="4.80" arrival="57813.00" arrivalLane="386687235_2" arrivalPos="80.84" arrivalSpeed="14.04" duration="191.00" routeLength="2257.41" waitingTime="11.00" waitingCount="2" stopTime="0.00" timeLoss="50.99" rerouteNo="1" devices="tripinfo_carIn462:1 routing_carIn462:1 emissions_carIn462:1" vType="default_016" speedFactor="1.06" vaporized="">
        <emissions CO_abs="8669.668327" CO2_abs="585732.118508" HC_abs="53.353681" PMx_abs="10.809139" NOx_abs="239.284365" fuel_abs="251.780512" electricity_abs="0"/>
    </tripinfo>
    <tripinfo id="carIn77943:1" depart="57608.00" departLane="124812856#0_1" departPos="5.10" departSpeed="0.00" departDelay="2.50" arrival="57814.00" arrivalLane="-128361102#1_1" arrivalPos="274.68" arrivalSpeed="11.44" duration="206.00" routeLength="2250.49" waitingTime="0.00" waitingCount="0" stopTime="0.00" timeLoss="21.28" rerouteNo="1" devices="tripinfo_carIn77943:1 routing_carIn77943:1 emissions_carIn77943:1" vType="default_016" speedFactor="0.89" vaporized="">
        <emissions CO_abs="5318.353316" CO2_abs="420682.159346" HC_abs="33.937621" PMx_abs="6.293528" NOx_abs="163.840799" fuel_abs="180.834104" electricity_abs="0"/>
    </tripinfo>
    <tripinfo id="carIn116184:1" depart="57627.00" departLane="-306240162#1_0" departPos="5.10" departSpeed="0.00" departDelay="0.10" arrival="57815.00" arrivalLane="386687235_2" arrivalPos="80.84" arrivalSpeed="14.69" duration="188.00" routeLength="2257.41" waitingTime="9.00" waitingCount="2" stopTime="0.00" timeLoss="53.47" rerouteNo="1" devices="tripinfo_carIn116184:1 routing_carIn116184:1 emissions_carIn116184:1" vType="default_016" speedFactor="1.11" vaporized="">
        <emissions CO_abs="8893.529901" CO2_abs="606174.948616" HC_abs="54.885905" PMx_abs="11.321991" NOx_abs="247.819907" fuel_abs="260.567782" electricity_abs="0"/>
    </tripinfo>
    <tripinfo id="carIn81046:1" depart="57611.00" departLane="124812856#0_1" departPos="5.10" departSpeed="0.00" departDelay="2.50" arrival="57816.00" arrivalLane="-128361102#1_1" arrivalPos="274.68" arrivalSpeed="14.45" duration="205.00" routeLength="2250.49" waitingTime="0.00" waitingCount="0" stopTime="0.00" timeLoss="50.37" rerouteNo="1" devices="tripinfo_carIn81046:1 routing_carIn81046:1 emissions_carIn81046:1" vType="default_016" speedFactor="1.07" vaporized="">
        <emissions CO_abs="7667.599328" CO2_abs="552372.649604" HC_abs="47.874316" PMx_abs="9.436014" NOx_abs="223.284485" fuel_abs="237.441209" electricity_abs="0"/>
    </tripinfo>
    <tripinfo id="carIn48184:1" depart="57613.00" departLane="-306240162#1_0" departPos="5.10" departSpeed="0.00" departDelay="0.70" arrival="57817.00" arrivalLane="386687235_1" arrivalPos="80.84" arrivalSpeed="12.37" duration="204.00" routeLength="2257.41" waitingTime="11.00" waitingCount="2" stopTime="0.00" timeLoss="37.46" rerouteNo="1" devices="tripinfo_carIn48184:1 routing_carIn48184:1 emissions_carIn48184:1" vType="default_016" speedFactor="0.90" vaporized="">
        <emissions CO_abs="7289.056429" CO2_abs="497475.981552" HC_abs="44.662844" PMx_abs="8.303245" NOx_abs="198.053751" fuel_abs="213.844274" electricity_abs="0"/>
    </tripinfo>
    <tripinfo id="carIn77438:1" depart="57614.00" departLane="124812856#0_1" departPos="5.10" departSpeed="0.00" departDelay="1.10" arrival="57818.00" arrivalLane="-128361102#1_1" arrivalPos="274.68" arrivalSpeed="12.53" duration="204.00" routeLength="2250.49" waitingTime="0.00" waitingCount="0" stopTime="0.00" timeLoss="36.34" rerouteNo="1" devices="tripinfo_carIn77438:1 routing_carIn77438:1 emissions_carIn77438:1" vType="default_016" speedFactor="0.99" vaporized="">
        <emissions CO_abs="7643.078018" CO2_abs="542678.727214" HC_abs="47.573908" PMx_abs="9.511493" NOx_abs="221.218524" fuel_abs="233.273904" electricity_abs="0"/>
    </tripinfo>
    <tripinfo id="carIn107842:1" depart="57623.00" departLane="124812856#0_1" departPos="5.10" departSpeed="0.00" departDelay="1.90" arrival="57819.00" arrivalLane="-128361102#1_1" arrivalPos="274.68" arrivalSpeed="14.17" duration="196.00" routeLength="2250.49" waitingTime="0.00" waitingCount="0" stopTime="0.00" timeLoss="48.74" rerouteNo="1" devices="tripinfo_carIn107842:1 routing_carIn107842:1 emissions_carIn107842:1" vType="default_016" speedFactor="1.11" vaporized="">
        <emissions CO_abs="8685.706944" CO2_abs="609911.341539" HC_abs="53.921466" PMx_abs="11.025617" NOx_abs="250.211631" fuel_abs="262.173891" electricity_abs="0"/>
    </tripinfo>
    <tripinfo id="h16072c2:3" depart="57663.00" departLane="315358254#0_1" departPos="5.10" departSpeed="0.00" departDelay="2.50" arrival="57819.00" arrivalLane="386687235_1" arrivalPos="80.84" arrivalSpeed="13.70" duration="156.00" routeLength="1611.92" waitingTime="3.00" waitingCount="1" stopTime="0.00" timeLoss="38.94" rerouteNo="1" devices="tripinfo_h16072c2:3 routing_h16072c2:3 emissions_h16072c2:3" vType="default_016" speedFactor="1.01" vaporized="">
        <emissions CO_abs="6539.095753" CO2_abs="414121.163437" HC_abs="39.498684" PMx_abs="7.383572" NOx_abs="169.331315" fuel_abs="178.013055" electricity_abs="0"/>
    </tripinfo>
    <tripinfo id="randUni33724:1" depart="57646.00" departLane="128361102#0_1" departPos="5.10" departSpeed="0.00" departDelay="1.20" arrival="57822.00" arrivalLane="201956811#0_1" arrivalPos="40.40" arrivalSpeed="13.18" duration="176.00" routeLength="2067.33" waitingTime="1.00" waitingCount="1" stopTime="0.00" timeLoss="22.84" rerouteNo="1" devices="tripinfo_randUni33724:1 routing_randUni33724:1 emissions_randUni33724:1" vType="random_016" speedFactor="0.99" vaporized="">
        <emissions CO_abs="5254.458491" CO2_abs="430262.366651" HC_abs="33.927652" PMx_abs="6.869895" NOx_abs="169.390712" fuel_abs="184.951518" electricity_abs="0"/>
    </tripinfo>
    <tripinfo id="randUni14624:1" depart="57606.00" departLane="315358244_1" departPos="5.10" departSpeed="0.00" departDelay="0.80" arrival="57828.00" arrivalLane="-25149001#4_1" arrivalPos="105.67" arrivalSpeed="9.06" duration="222.00" routeLength="2803.98" waitingTime="8.00" waitingCount="1" stopTime="0.00" timeLoss="30.09" rerouteNo="1" devices="tripinfo_randUni14624:1 routing_randUni14624:1 emissions_randUni14624:1" vType="random_016" speedFactor="1.10" vaporized="">
        <emissions CO_abs="5934.182565" CO2_abs="533792.325818" HC_abs="39.331209" PMx_abs="8.648371" NOx_abs="208.708114" fuel_abs="229.454160" electricity_abs="0"/>
    </tripinfo>