<?xml version="1.0" encoding="UTF-8"?>

<!-- generated on 2021-10-26 12:24:54 by Eclipse SUMO sumo Version 1.10.0
<configuration xmlns:xsi="http://www.w3.org/2001/XMLSchema-instance" xsi:noNamespaceSchemaLocation="http://sumo.dlr.de/xsd/sumoConfiguration.xsd">

    <input>
        <net-file value="/Users/behradkoohy/sumo-scratchpad/RESCO/environments/ingolstadt21/ingolstadt21.net.xml"/>
        <route-files value="/Users/behradkoohy/sumo-scratchpad/RESCO/environments/ingolstadt21/ingolstadt21.rou.xml"/>
    </input>

    <output>
        <tripinfo-output value="/Users/behradkoohy/sumo-scratchpad/RESCO/logs/MAXWAVE-tr0-ingolstadt21-21-wave-wait/tripinfo_98.xml"/>
        <tripinfo-output.write-unfinished value="true"/>
    </output>

    <time>
        <begin value="57600"/>
        <end value="61200"/>
    </time>

    <processing>
        <time-to-teleport value="-1"/>
    </processing>

    <report>
        <no-warnings value="true"/>
        <no-step-log value="true"/>
    </report>

    <emissions>
        <device.emissions.probability value="1"/>
    </emissions>

    <traci_server>
        <remote-port value="58225"/>
    </traci_server>

    <random_number>
        <random value="true"/>
    </random_number>

</configuration>
-->

<tripinfos xmlns:xsi="http://www.w3.org/2001/XMLSchema-instance" xsi:noNamespaceSchemaLocation="http://sumo.dlr.de/xsd/tripinfo_file.xsd">
    <tripinfo id="h15454c2:3" depart="57612.00" departLane="24608844_1" departPos="5.10" departSpeed="0.00" departDelay="0.50" arrival="57656.00" arrivalLane="32978638#0_1" arrivalPos="49.29" arrivalSpeed="12.37" duration="44.00" routeLength="354.79" waitingTime="0.00" waitingCount="0" stopTime="0.00" timeLoss="5.97" rerouteNo="1" devices="tripinfo_h15454c2:3 routing_h15454c2:3 emissions_h15454c2:3" vType="default_016" speedFactor="0.89" vaporized="">
        <emissions CO_abs="2188.889187" CO2_abs="111823.763100" HC_abs="12.564588" PMx_abs="1.920499" NOx_abs="45.841364" fuel_abs="48.068688" electricity_abs="0"/>
    </tripinfo>
    <tripinfo id="carIn60260:1" depart="57606.00" departLane="315358254#0_1" departPos="5.10" departSpeed="0.00" departDelay="0.90" arrival="57658.00" arrivalLane="399835085#1_1" arrivalPos="212.23" arrivalSpeed="7.46" duration="52.00" routeLength="430.98" waitingTime="0.00" waitingCount="0" stopTime="0.00" timeLoss="7.29" rerouteNo="1" devices="tripinfo_carIn60260:1 routing_carIn60260:1 emissions_carIn60260:1" vType="default_016" speedFactor="1.03" vaporized="">
        <emissions CO_abs="2190.163940" CO2_abs="117867.393927" HC_abs="12.684272" PMx_abs="1.862966" NOx_abs="47.207588" fuel_abs="50.666764" electricity_abs="0"/>
    </tripinfo>
    <tripinfo id="carIn53971:1" depart="57640.00" departLane="272042143_1" departPos="5.10" departSpeed="0.00" departDelay="0.80" arrival="57692.00" arrivalLane="24634414#1_1" arrivalPos="162.19" arrivalSpeed="7.88" duration="52.00" routeLength="493.04" waitingTime="0.00" waitingCount="0" stopTime="0.00" timeLoss="8.61" rerouteNo="1" devices="tripinfo_carIn53971:1 routing_carIn53971:1 emissions_carIn53971:1" vType="default_016" speedFactor="1.06" vaporized="">
        <emissions CO_abs="2505.261879" CO2_abs="147720.339949" HC_abs="14.847778" PMx_abs="2.533006" NOx_abs="60.153064" fuel_abs="63.498945" electricity_abs="0"/>
    </tripinfo>
    <tripinfo id="S5R_frequency1.2" depart="57615.00" departLane="315358250#0_1" departPos="12.10" departSpeed="0.00" departDelay="3.40" arrival="57707.00" arrivalLane="386687235_1" arrivalPos="80.84" arrivalSpeed="13.30" duration="92.00" routeLength="1115.62" waitingTime="0.00" waitingCount="0" stopTime="0.00" timeLoss="10.09" rerouteNo="1" devices="tripinfo_S5R_frequency1.2 routing_S5R_frequency1.2 emissions_S5R_frequency1.2" vType="bus" speedFactor="1.00" vaporized="">
        <emissions CO_abs="1763.486889" CO2_abs="1128429.257669" HC_abs="373.290524" PMx_abs="189.763875" NOx_abs="8688.534922" fuel_abs="481.273456" electricity_abs="0"/>
    </tripinfo>
    <tripinfo id="h12244c1:3" depart="57612.00" departLane="315358244_1" departPos="5.10" departSpeed="0.00" departDelay="0.40" arrival="57711.00" arrivalLane="386687235_1" arrivalPos="80.84" arrivalSpeed="13.38" duration="99.00" routeLength="1186.14" waitingTime="0.00" waitingCount="0" stopTime="0.00" timeLoss="8.81" rerouteNo="1" devices="tripinfo_h12244c1:3 routing_h12244c1:3 emissions_h12244c1:3" vType="default_016" speedFactor="0.96" vaporized="">
        <emissions CO_abs="2752.730516" CO2_abs="235696.211806" HC_abs="18.010830" PMx_abs="3.677508" NOx_abs="92.170307" fuel_abs="101.315824" electricity_abs="0"/>
    </tripinfo>
    <tripinfo id="h9563c2:5" depart="57631.00" departLane="315358244_1" departPos="5.10" departSpeed="0.00" departDelay="0.70" arrival="57719.00" arrivalLane="386687235_1" arrivalPos="80.84" arrivalSpeed="14.08" duration="88.00" routeLength="1186.14" waitingTime="0.00" waitingCount="0" stopTime="0.00" timeLoss="8.98" rerouteNo="1" devices="tripinfo_h9563c2:5 routing_h9563c2:5 emissions_h9563c2:5" vType="default_016" speedFactor="1.10" vaporized="">
        <emissions CO_abs="2562.533503" CO2_abs="232026.837922" HC_abs="17.024860" PMx_abs="3.760648" NOx_abs="90.682117" fuel_abs="99.738259" electricity_abs="0"/>
    </tripinfo>
    <tripinfo id="h7800c1:5" depart="57696.00" departLane="-447569998#1_1" departPos="5.10" departSpeed="0.00" departDelay="0.00" arrival="57720.00" arrivalLane="-447569998#1_1" arrivalPos="180.76" arrivalSpeed="8.13" duration="24.00" routeLength="175.66" waitingTime="0.00" waitingCount="0" stopTime="0.00" timeLoss="3.21" rerouteNo="1" devices="tripinfo_h7800c1:5 routing_h7800c1:5 emissions_h7800c1:5" vType="default_016" speedFactor="1.02" vaporized="">
        <emissions CO_abs="1250.536670" CO2_abs="56282.991470" HC_abs="6.979253" PMx_abs="0.882574" NOx_abs="22.639417" fuel_abs="24.194114" electricity_abs="0"/>
    </tripinfo>
    <tripinfo id="carIn80064:1" depart="57603.00" departLane="128361109#1_1" departPos="5.10" departSpeed="0.00" departDelay="0.40" arrival="57727.00" arrivalLane="-315358254#1_1" arrivalPos="137.16" arrivalSpeed="13.90" duration="124.00" routeLength="1587.97" waitingTime="7.00" waitingCount="2" stopTime="0.00" timeLoss="39.43" rerouteNo="1" devices="tripinfo_carIn80064:1 routing_carIn80064:1 emissions_carIn80064:1" vType="default_016" speedFactor="1.06" vaporized="">
        <emissions CO_abs="7501.679401" CO2_abs="504860.576345" HC_abs="46.267746" PMx_abs="9.979333" NOx_abs="209.342249" fuel_abs="217.016524" electricity_abs="0"/>
    </tripinfo>
    <tripinfo id="h3688c1:1" depart="57625.00" departLane="201201950#1_1" departPos="5.10" departSpeed="0.00" departDelay="0.00" arrival="57732.00" arrivalLane="32978638#0_1" arrivalPos="49.29" arrivalSpeed="12.49" duration="107.00" routeLength="1089.75" waitingTime="7.00" waitingCount="1" stopTime="0.00" timeLoss="23.62" rerouteNo="1" devices="tripinfo_h3688c1:1 routing_h3688c1:1 emissions_h3688c1:1" vType="default_016" speedFactor="0.96" vaporized="">
        <emissions CO_abs="4090.380409" CO2_abs="267309.128546" HC_abs="24.843343" PMx_abs="4.441461" NOx_abs="106.982885" fuel_abs="114.905219" electricity_abs="0"/>
    </tripinfo>
    <tripinfo id="h3568c1:3" depart="57656.00" departLane="266565295#5_1" departPos="5.10" departSpeed="0.00" departDelay="0.80" arrival="57735.00" arrivalLane="-24634415_1" arrivalPos="62.03" arrivalSpeed="13.08" duration="79.00" routeLength="807.40" waitingTime="0.00" waitingCount="0" stopTime="0.00" timeLoss="12.38" rerouteNo="1" devices="tripinfo_h3568c1:3 routing_h3568c1:3 emissions_h3568c1:3" vType="default_016" speedFactor="0.97" vaporized="">
        <emissions CO_abs="3352.582716" CO2_abs="218547.955850" HC_abs="20.389412" PMx_abs="3.798398" NOx_abs="88.892886" fuel_abs="93.944511" electricity_abs="0"/>
    </tripinfo>
    <tripinfo id="carIn22761:1" depart="57616.00" departLane="-306240162#1_0" departPos="5.10" departSpeed="0.00" departDelay="2.10" arrival="57738.00" arrivalLane="399835085#1_1" arrivalPos="212.23" arrivalSpeed="9.15" duration="122.00" routeLength="1093.26" waitingTime="40.00" waitingCount="1" stopTime="0.00" timeLoss="58.20" rerouteNo="1" devices="tripinfo_carIn22761:1 routing_carIn22761:1 emissions_carIn22761:1" vType="default_016" speedFactor="1.22" vaporized="">
        <emissions CO_abs="10497.519424" CO2_abs="403193.118188" HC_abs="57.458185" PMx_abs="8.511262" NOx_abs="171.183570" fuel_abs="173.317305" electricity_abs="0"/>
    </tripinfo>
    <tripinfo id="h7181c1:1" depart="57660.00" departLane="315358254#0_1" departPos="5.10" departSpeed="0.00" departDelay="0.10" arrival="57740.00" arrivalLane="306240162#0_0" arrivalPos="220.43" arrivalSpeed="16.52" duration="80.00" routeLength="932.35" waitingTime="10.00" waitingCount="2" stopTime="0.00" timeLoss="31.01" rerouteNo="1" devices="tripinfo_h7181c1:1 routing_h7181c1:1 emissions_h7181c1:1" vType="default_016" speedFactor="1.05" vaporized="">
        <emissions CO_abs="5143.917252" CO2_abs="313700.501619" HC_abs="30.955035" PMx_abs="6.235588" NOx_abs="130.678757" fuel_abs="134.845856" electricity_abs="0"/>
    </tripinfo>
    <tripinfo id="h317c2:1" depart="57707.00" departLane="-32978638#0_1" departPos="5.10" departSpeed="0.00" departDelay="0.10" arrival="57746.00" arrivalLane="-266565295#5_1" arrivalPos="172.76" arrivalSpeed="12.60" duration="39.00" routeLength="370.53" waitingTime="0.00" waitingCount="0" stopTime="0.00" timeLoss="9.73" rerouteNo="1" devices="tripinfo_h317c2:1 routing_h317c2:1 emissions_h317c2:1" vType="default_016" speedFactor="0.93" vaporized="">
        <emissions CO_abs="1929.436353" CO2_abs="108837.601951" HC_abs="11.338483" PMx_abs="1.940882" NOx_abs="44.769198" fuel_abs="46.784805" electricity_abs="0"/>
    </tripinfo>
    <tripinfo id="h4538c1:1" depart="57701.00" departLane="-10427692#1_1" departPos="5.10" departSpeed="0.00" departDelay="0.00" arrival="57753.00" arrivalLane="-128361102#1_1" arrivalPos="274.68" arrivalSpeed="14.59" duration="52.00" routeLength="440.74" waitingTime="12.00" waitingCount="1" stopTime="0.00" timeLoss="23.52" rerouteNo="1" devices="tripinfo_h4538c1:1 routing_h4538c1:1 emissions_h4538c1:1" vType="default_016" speedFactor="1.10" vaporized="">
        <emissions CO_abs="3034.037644" CO2_abs="138635.940469" HC_abs="17.048729" PMx_abs="2.636517" NOx_abs="57.591235" fuel_abs="59.594170" electricity_abs="0"/>
    </tripinfo>
    <tripinfo id="carIn30817:1" depart="57681.00" departLane="315358244_1" departPos="5.10" departSpeed="0.00" departDelay="0.20" arrival="57754.00" arrivalLane="447569997#1_1" arrivalPos="180.93" arrivalSpeed="7.17" duration="73.00" routeLength="718.04" waitingTime="0.00" waitingCount="0" stopTime="0.00" timeLoss="7.48" rerouteNo="1" devices="tripinfo_carIn30817:1 routing_carIn30817:1 emissions_carIn30817:1" vType="default_016" speedFactor="0.94" vaporized="">
        <emissions CO_abs="2357.148262" CO2_abs="152254.872823" HC_abs="14.265671" PMx_abs="2.444692" NOx_abs="60.684913" fuel_abs="65.448243" electricity_abs="0"/>
    </tripinfo>
    <tripinfo id="h3154c1:1" depart="57658.00" departLane="24634507_1" departPos="5.10" departSpeed="0.00" departDelay="0.00" arrival="57765.00" arrivalLane="-266565295#5_1" arrivalPos="172.76" arrivalSpeed="15.72" duration="107.00" routeLength="1206.22" waitingTime="11.00" waitingCount="2" stopTime="0.00" timeLoss="33.04" rerouteNo="1" devices="tripinfo_h3154c1:1 routing_h3154c1:1 emissions_h3154c1:1" vType="default_016" speedFactor="1.20" vaporized="">
        <emissions CO_abs="6092.681001" CO2_abs="367450.638640" HC_abs="36.420176" PMx_abs="7.095597" NOx_abs="152.949784" fuel_abs="157.950875" electricity_abs="0"/>
    </tripinfo>
    <tripinfo id="h3326c1:2" depart="57656.00" departLane="22716069#0_1" departPos="5.10" departSpeed="0.00" departDelay="0.00" arrival="57773.00" arrivalLane="24634517#13_1" arrivalPos="111.62" arrivalSpeed="12.21" duration="117.00" routeLength="1312.81" waitingTime="0.00" waitingCount="0" stopTime="0.00" timeLoss="16.42" rerouteNo="1" devices="tripinfo_h3326c1:2 routing_h3326c1:2 emissions_h3326c1:2" vType="default_016" speedFactor="0.96" vaporized="">
        <emissions CO_abs="4035.838929" CO2_abs="296533.495270" HC_abs="25.309650" PMx_abs="4.908277" NOx_abs="118.651570" fuel_abs="127.467169" electricity_abs="0"/>
    </tripinfo>
    <tripinfo id="carIn27009:1" depart="57673.00" departLane="-447569998#1_1" departPos="5.10" departSpeed="0.00" departDelay="0.50" arrival="57775.00" arrivalLane="-26677539_1" arrivalPos="152.75" arrivalSpeed="7.28" duration="102.00" routeLength="699.63" waitingTime="2.00" waitingCount="1" stopTime="0.00" timeLoss="17.24" rerouteNo="1" devices="tripinfo_carIn27009:1 routing_carIn27009:1 emissions_carIn27009:1" vType="default_015" speedFactor="0.99" vaporized="">
        <emissions CO_abs="4219.823437" CO2_abs="194404.153718" HC_abs="23.674902" PMx_abs="3.151099" NOx_abs="78.936394" fuel_abs="83.567382" electricity_abs="0"/>
    </tripinfo>
    <tripinfo id="carIn118591:1" depart="57689.00" departLane="315358244_1" departPos="5.10" departSpeed="0.00" departDelay="0.20" arrival="57775.00" arrivalLane="386687235_1" arrivalPos="80.84" arrivalSpeed="14.37" duration="86.00" routeLength="1186.14" waitingTime="0.00" waitingCount="0" stopTime="0.00" timeLoss="8.82" rerouteNo="1" devices="tripinfo_carIn118591:1 routing_carIn118591:1 emissions_carIn118591:1" vType="default_016" speedFactor="1.12" vaporized="">
        <emissions CO_abs="2568.635686" CO2_abs="236385.353161" HC_abs="17.123955" PMx_abs="3.852624" NOx_abs="92.454281" fuel_abs="101.611728" electricity_abs="0"/>
    </tripinfo>
    <tripinfo id="h330c1:1" depart="57736.00" departLane="-32978638#0_1" departPos="5.10" departSpeed="0.00" departDelay="0.20" arrival="57776.00" arrivalLane="-266565295#5_1" arrivalPos="172.76" arrivalSpeed="13.37" duration="40.00" routeLength="370.53" waitingTime="2.00" waitingCount="1" stopTime="0.00" timeLoss="11.55" rerouteNo="1" devices="tripinfo_h330c1:1 routing_h330c1:1 emissions_h330c1:1" vType="default_016" speedFactor="0.98" vaporized="">
        <emissions CO_abs="2020.991884" CO2_abs="120700.119622" HC_abs="12.031905" PMx_abs="2.107602" NOx_abs="49.140534" fuel_abs="51.884002" electricity_abs="0"/>
    </tripinfo>
    <tripinfo id="carIn82220:1" depart="57619.00" departLane="-306240162#1_0" departPos="5.10" departSpeed="0.00" departDelay="3.50" arrival="57782.00" arrivalLane="386687235_2" arrivalPos="80.84" arrivalSpeed="15.77" duration="163.00" routeLength="2257.41" waitingTime="4.00" waitingCount="2" stopTime="0.00" timeLoss="37.19" rerouteNo="1" devices="tripinfo_carIn82220:1 routing_carIn82220:1 emissions_carIn82220:1" vType="default_016" speedFactor="1.18" vaporized="">
        <emissions CO_abs="7814.193604" CO2_abs="562992.155384" HC_abs="48.891120" PMx_abs="10.751318" NOx_abs="230.045994" fuel_abs="242.004814" electricity_abs="0"/>
    </tripinfo>
    <tripinfo id="carIn48184:1" depart="57613.00" departLane="-306240162#1_0" departPos="5.10" departSpeed="0.00" departDelay="0.70" arrival="57784.00" arrivalLane="386687235_1" arrivalPos="80.84" arrivalSpeed="13.69" duration="171.00" routeLength="2257.41" waitingTime="5.00" waitingCount="2" stopTime="0.00" timeLoss="31.51" rerouteNo="1" devices="tripinfo_carIn48184:1 routing_carIn48184:1 emissions_carIn48184:1" vType="default_016" speedFactor="1.07" vaporized="">
        <emissions CO_abs="6872.981903" CO2_abs="546189.565394" HC_abs="44.042320" PMx_abs="9.732224" NOx_abs="218.311190" fuel_abs="234.782629" electricity_abs="0"/>
    </tripinfo>
    <tripinfo id="h645c1:1" depart="57622.00" departLane="266565295#5_1" departPos="5.10" departSpeed="0.00" departDelay="0.40" arrival="57785.00" arrivalLane="-315358244_1" arrivalPos="33.95" arrivalSpeed="11.47" duration="163.00" routeLength="1910.83" waitingTime="0.00" waitingCount="0" stopTime="0.00" timeLoss="12.14" rerouteNo="1" devices="tripinfo_h645c1:1 routing_h645c1:1 emissions_h645c1:1" vType="default_016" speedFactor="0.92" vaporized="">
        <emissions CO_abs="3537.743198" CO2_abs="338075.612277" HC_abs="23.896937" PMx_abs="4.738236" NOx_abs="128.598980" fuel_abs="145.324881" electricity_abs="0"/>
    </tripinfo>
    <tripinfo id="carIn12365:1" depart="57713.00" departLane="315358244_1" departPos="5.10" departSpeed="0.00" departDelay="0.50" arrival="57792.00" arrivalLane="447569997#1_1" arrivalPos="180.93" arrivalSpeed="7.34" duration="79.00" routeLength="718.04" waitingTime="2.00" waitingCount="1" stopTime="0.00" timeLoss="13.54" rerouteNo="1" devices="tripinfo_carIn12365:1 routing_carIn12365:1 emissions_carIn12365:1" vType="default_016" speedFactor="0.94" vaporized="">
        <emissions CO_abs="2858.897049" CO2_abs="163809.973103" HC_abs="16.809868" PMx_abs="2.675820" NOx_abs="65.770481" fuel_abs="70.415502" electricity_abs="0"/>
    </tripinfo>
    <tripinfo id="carIn129809:1" depart="57729.00" departLane="-447569998#1_1" departPos="5.10" departSpeed="0.00" departDelay="1.00" arrival="57792.00" arrivalLane="-315358244_1" arrivalPos="33.95" arrivalSpeed="15.15" duration="63.00" routeLength="706.49" waitingTime="0.00" waitingCount="0" stopTime="0.00" timeLoss="11.26" rerouteNo="1" devices="tripinfo_carIn129809:1 routing_carIn129809:1 emissions_carIn129809:1" vType="default_015" speedFactor="1.17" vaporized="">
        <emissions CO_abs="2364.728633" CO2_abs="156223.030582" HC_abs="14.325812" PMx_abs="2.619806" NOx_abs="62.332151" fuel_abs="67.153828" electricity_abs="0"/>
    </tripinfo>
    <tripinfo id="carIn28951:1" depart="57606.00" departLane="10425609#0_1" departPos="5.10" departSpeed="0.00" departDelay="0.20" arrival="57794.00" arrivalLane="-128361102#1_1" arrivalPos="274.68" arrivalSpeed="12.64" duration="188.00" routeLength="2113.04" waitingTime="0.00" waitingCount="0" stopTime="0.00" timeLoss="19.36" rerouteNo="1" devices="tripinfo_carIn28951:1 routing_carIn28951:1 emissions_carIn28951:1" vType="default_016" speedFactor="0.92" vaporized="">
        <emissions CO_abs="5367.264772" CO2_abs="420901.867982" HC_abs="34.245045" PMx_abs="6.714605" NOx_abs="166.597245" fuel_abs="180.927952" electricity_abs="0"/>
    </tripinfo>
    <tripinfo id="carIn107084:1" depart="57601.00" departLane="124812856#0_1" departPos="5.10" departSpeed="0.00" departDelay="0.70" arrival="57795.00" arrivalLane="-128361102#1_1" arrivalPos="274.68" arrivalSpeed="14.23" duration="194.00" routeLength="2232.46" waitingTime="9.00" waitingCount="2" stopTime="0.00" timeLoss="57.65" rerouteNo="1" devices="tripinfo_carIn107084:1 routing_carIn107084:1 emissions_carIn107084:1" vType="default_016" speedFactor="1.20" vaporized="">
        <emissions CO_abs="8061.829668" CO2_abs="578354.399768" HC_abs="50.227158" PMx_abs="10.310932" NOx_abs="235.139684" fuel_abs="248.609134" electricity_abs="0"/>
    </tripinfo>
    <tripinfo id="carIn82278:1" depart="57702.00" departLane="-306240162#1_0" departPos="5.10" departSpeed="0.00" departDelay="0.70" arrival="57798.00" arrivalLane="399835085#1_1" arrivalPos="212.23" arrivalSpeed="8.96" duration="96.00" routeLength="1093.26" waitingTime="10.00" waitingCount="1" stopTime="0.00" timeLoss="29.07" rerouteNo="1" devices="tripinfo_carIn82278:1 routing_carIn82278:1 emissions_carIn82278:1" vType="default_016" speedFactor="1.16" vaporized="">
        <emissions CO_abs="6085.038462" CO2_abs="337191.561489" HC_abs="35.802590" PMx_abs="6.829547" NOx_abs="141.905891" fuel_abs="144.943832" electricity_abs="0"/>
    </tripinfo>
    <tripinfo id="carIn462:1" depart="57622.00" departLane="-306240162#1_0" departPos="5.10" departSpeed="0.00" departDelay="4.80" arrival="57803.00" arrivalLane="386687235_1" arrivalPos="80.84" arrivalSpeed="13.63" duration="181.00" routeLength="2257.41" waitingTime="9.00" waitingCount="2" stopTime="0.00" timeLoss="37.54" rerouteNo="1" devices="tripinfo_carIn462:1 routing_carIn462:1 emissions_carIn462:1" vType="default_016" speedFactor="1.03" vaporized="">
        <emissions CO_abs="6543.405627" CO2_abs="508251.285066" HC_abs="41.754466" PMx_abs="8.992403" NOx_abs="203.951853" fuel_abs="218.474770" electricity_abs="0"/>
    </tripinfo>
    <tripinfo id="carIn86816:1" depart="57617.00" departLane="128361102#0_1" departPos="5.10" departSpeed="0.00" departDelay="0.80" arrival="57804.00" arrivalLane="201956811#0_1" arrivalPos="40.40" arrivalSpeed="11.52" duration="187.00" routeLength="2067.33" waitingTime="0.00" waitingCount="0" stopTime="0.00" timeLoss="20.22" rerouteNo="1" devices="tripinfo_carIn86816:1 routing_carIn86816:1 emissions_carIn86816:1" vType="default_016" speedFactor="0.91" vaporized="">
        <emissions CO_abs="5304.226530" CO2_abs="418169.358911" HC_abs="33.841996" PMx_abs="6.388475" NOx_abs="163.603909" fuel_abs="179.753778" electricity_abs="0"/>
    </tripinfo>
    <tripinfo id="carIn101568:1" depart="57638.00" departLane="-306240162#1_0" departPos="5.10" departSpeed="0.00" departDelay="0.50" arrival="57805.00" arrivalLane="386687235_2" arrivalPos="80.84" arrivalSpeed="14.13" duration="167.00" routeLength="2257.41" waitingTime="0.00" waitingCount="0" stopTime="0.00" timeLoss="24.38" rerouteNo="1" devices="tripinfo_carIn101568:1 routing_carIn101568:1 emissions_carIn101568:1" vType="default_016" speedFactor="1.04" vaporized="">
        <emissions CO_abs="6127.035912" CO2_abs="502557.948903" HC_abs="39.762933" PMx_abs="8.817698" NOx_abs="201.407079" fuel_abs="216.027262" electricity_abs="0"/>
    </tripinfo>
    <tripinfo id="carIn12858:1" depart="57661.00" departLane="128361109#1_1" departPos="5.10" departSpeed="0.00" departDelay="0.90" arrival="57805.00" arrivalLane="399835085#1_1" arrivalPos="212.23" arrivalSpeed="7.45" duration="144.00" routeLength="1738.12" waitingTime="2.00" waitingCount="1" stopTime="0.00" timeLoss="32.76" rerouteNo="1" devices="tripinfo_carIn12858:1 routing_carIn12858:1 emissions_carIn12858:1" vType="default_016" speedFactor="1.04" vaporized="">
        <emissions CO_abs="7692.643060" CO2_abs="500402.673189" HC_abs="46.970524" PMx_abs="9.595016" NOx_abs="206.150002" fuel_abs="215.100891" electricity_abs="0"/>
    </tripinfo>
    <tripinfo id="carIn116184:1" depart="57627.00" departLane="-306240162#1_0" departPos="5.10" departSpeed="0.00" departDelay="0.10" arrival="57806.00" arrivalLane="386687235_1" arrivalPos="80.84" arrivalSpeed="12.53" duration="179.00" routeLength="2257.41" waitingTime="0.00" waitingCount="0" stopTime="0.00" timeLoss="21.91" rerouteNo="1" devices="tripinfo_carIn116184:1 routing_carIn116184:1 emissions_carIn116184:1" vType="default_016" speedFactor="0.95" vaporized="">
        <emissions CO_abs="5941.095797" CO2_abs="487759.130257" HC_abs="38.520014" PMx_abs="8.180574" NOx_abs="193.647565" fuel_abs="209.666424" electricity_abs="0"/>
    </tripinfo>
    <tripinfo id="carIn77943:1" depart="57608.00" departLane="124812856#0_1" departPos="5.10" departSpeed="0.00" departDelay="2.50" arrival="57807.00" arrivalLane="-128361102#1_1" arrivalPos="274.68" arrivalSpeed="12.71" duration="199.00" routeLength="2250.49" waitingTime="0.00" waitingCount="0" stopTime="0.00" timeLoss="24.80" rerouteNo="1" devices="tripinfo_carIn77943:1 routing_carIn77943:1 emissions_carIn77943:1" vType="default_016" speedFactor="0.94" vaporized="">
        <emissions CO_abs="6038.674489" CO2_abs="480356.954570" HC_abs="38.671397" PMx_abs="7.558504" NOx_abs="189.060308" fuel_abs="206.485310" electricity_abs="0"/>
    </tripinfo>
    <tripinfo id="h5216c1:1" depart="57664.00" departLane="224892339#0_1" departPos="5.10" departSpeed="0.00" departDelay="0.00" arrival="57807.00" arrivalLane="386687235_2" arrivalPos="80.84" arrivalSpeed="15.39" duration="143.00" routeLength="1823.78" waitingTime="0.00" waitingCount="0" stopTime="0.00" timeLoss="33.33" rerouteNo="1" devices="tripinfo_h5216c1:1 routing_h5216c1:1 emissions_h5216c1:1" vType="default_016" speedFactor="1.17" vaporized="">
        <emissions CO_abs="5704.668578" CO2_abs="445758.421742" HC_abs="36.375573" PMx_abs="8.012862" NOx_abs="181.085423" fuel_abs="191.611464" electricity_abs="0"/>
    </tripinfo>
    <tripinfo id="carIn31257:1" depart="57630.00" departLane="-306240162#1_0" departPos="5.10" departSpeed="0.00" departDelay="1.60" arrival="57808.00" arrivalLane="386687235_1" arrivalPos="80.84" arrivalSpeed="12.35" duration="178.00" routeLength="2257.41" waitingTime="0.00" waitingCount="0" stopTime="0.00" timeLoss="17.84" rerouteNo="1" devices="tripinfo_carIn31257:1 routing_carIn31257:1 emissions_carIn31257:1" vType="default_016" speedFactor="0.93" vaporized="">
        <emissions CO_abs="5222.049013" CO2_abs="448872.082892" HC_abs="34.298986" PMx_abs="7.255328" NOx_abs="176.075363" fuel_abs="192.950822" electricity_abs="0"/>
    </tripinfo>
    <tripinfo id="carIn107282:1" depart="57749.00" departLane="-447569998#1_1" departPos="5.10" departSpeed="0.00" departDelay="0.00" arrival="57810.00" arrivalLane="315358242#0_1" arrivalPos="165.37" arrivalSpeed="10.94" duration="61.00" routeLength="448.50" waitingTime="1.00" waitingCount="1" stopTime="0.00" timeLoss="10.03" rerouteNo="1" devices="tripinfo_carIn107282:1 routing_carIn107282:1 emissions_carIn107282:1" vType="default_016" speedFactor="0.82" vaporized="">
        <emissions CO_abs="2695.611739" CO2_abs="119917.669491" HC_abs="15.038760" PMx_abs="2.012539" NOx_abs="48.953926" fuel_abs="51.548304" electricity_abs="0"/>
    </tripinfo>
    <tripinfo id="carIn50326:1" depart="57651.00" departLane="128361102#0_1" departPos="5.10" departSpeed="0.00" departDelay="0.30" arrival="57814.00" arrivalLane="18809673#0_1" arrivalPos="473.56" arrivalSpeed="12.67" duration="163.00" routeLength="1591.07" waitingTime="9.00" waitingCount="1" stopTime="0.00" timeLoss="27.83" rerouteNo="1" devices="tripinfo_carIn50326:1 routing_carIn50326:1 emissions_carIn50326:1" vType="default_016" speedFactor="0.96" vaporized="">
        <emissions CO_abs="5522.885534" CO2_abs="355806.697895" HC_abs="33.414331" PMx_abs="5.747100" NOx_abs="141.715799" fuel_abs="152.946976" electricity_abs="0"/>
    </tripinfo>
    <tripinfo id="h17600c1:1" depart="57662.00" departLane="272042143_1" departPos="5.10" departSpeed="0.00" departDelay="0.30" arrival="57817.00" arrivalLane="201238729#3_1" arrivalPos="431.02" arrivalSpeed="13.71" duration="155.00" routeLength="2100.26" waitingTime="0.00" waitingCount="0" stopTime="0.00" timeLoss="11.55" rerouteNo="1" devices="tripinfo_h17600c1:1 routing_h17600c1:1 emissions_h17600c1:1" vType="default_016" speedFactor="1.05" vaporized="">
        <emissions CO_abs="3305.586207" CO2_abs="340854.851850" HC_abs="22.970896" PMx_abs="5.250102" NOx_abs="131.350513" fuel_abs="146.518748" electricity_abs="0"/>
    </tripinfo>
    <tripinfo id="h11737c1:1" depart="57665.00" departLane="272042143_1" departPos="5.10" departSpeed="0.00" departDelay="1.50" arrival="57818.00" arrivalLane="-315358254#1_1" arrivalPos="137.16" arrivalSpeed="11.89" duration="153.00" routeLength="1596.88" waitingTime="7.00" waitingCount="1" stopTime="0.00" timeLoss="24.41" rerouteNo="1" devices="tripinfo_h11737c1:1 routing_h11737c1:1 emissions_h11737c1:1" vType="default_016" speedFactor="0.90" vaporized="">
        <emissions CO_abs="4509.444376" CO2_abs="338545.315275" HC_abs="28.387852" PMx_abs="5.257419" NOx_abs="133.007726" fuel_abs="145.526736" electricity_abs="0"/>
    </tripinfo>
    <tripinfo id="carIn81046:1" depart="57611.00" departLane="124812856#0_1" departPos="5.10" departSpeed="0.00" departDelay="2.50" arrival="57819.00" arrivalLane="-128361102#1_1" arrivalPos="274.68" arrivalSpeed="11.20" duration="208.00" routeLength="2250.49" waitingTime="0.00" waitingCount="0" stopTime="0.00" timeLoss="24.43" rerouteNo="1" devices="tripinfo_carIn81046:1 routing_carIn81046:1 emissions_carIn81046:1" vType="default_016" speedFactor="0.90" vaporized="">
        <emissions CO_abs="5940.788861" CO2_abs="452008.878980" HC_abs="37.545331" PMx_abs="7.072403" NOx_abs="178.266171" fuel_abs="194.299880" electricity_abs="0"/>
    </tripinfo>
    <tripinfo id="h5979c1:5" depart="57669.00" departLane="399835085#1_1" departPos="5.10" departSpeed="0.00" departDelay="0.00" arrival="57820.00" arrivalLane="-315358254#1_1" arrivalPos="137.16" arrivalSpeed="13.04" duration="151.00" routeLength="659.33" waitingTime="60.00" waitingCount="1" stopTime="0.00" timeLoss="74.75" rerouteNo="1" devices="tripinfo_h5979c1:5 routing_h5979c1:5 emissions_h5979c1:5" vType="default_016" speedFactor="0.97" vaporized="">
        <emissions CO_abs="13078.497187" CO2_abs="329232.120938" HC_abs="67.200137" PMx_abs="6.685846" NOx_abs="141.391396" fuel_abs="141.528215" electricity_abs="0"/>
    </tripinfo>
    <tripinfo id="carIn102915:1" depart="57643.00" departLane="128361102#0_1" departPos="5.10" departSpeed="0.00" departDelay="0.40" arrival="57822.00" arrivalLane="201956811#0_1" arrivalPos="40.40" arrivalSpeed="12.87" duration="179.00" routeLength="2067.33" waitingTime="4.00" waitingCount="1" stopTime="0.00" timeLoss="25.62" rerouteNo="1" devices="tripinfo_carIn102915:1 routing_carIn102915:1 emissions_carIn102915:1" vType="default_016" speedFactor="0.99" vaporized="">
        <emissions CO_abs="5473.626623" CO2_abs="438866.127120" HC_abs="35.148421" PMx_abs="7.104018" NOx_abs="173.605788" fuel_abs="188.649840" electricity_abs="0"/>
    </tripinfo>
    <tripinfo id="randUni33724:1" depart="57646.00" departLane="128361102#0_1" departPos="5.10" departSpeed="0.00" departDelay="1.20" arrival="57826.00" arrivalLane="201956811#0_1" arrivalPos="40.40" arrivalSpeed="12.91" duration="180.00" routeLength="2067.33" waitingTime="0.00" waitingCount="0" stopTime="0.00" timeLoss="18.28" rerouteNo="1" devices="tripinfo_randUni33724:1 routing_randUni33724:1 emissions_randUni33724:1" vType="random_016" speedFactor="0.94" vaporized="">
        <emissions CO_abs="4891.026451" CO2_abs="412160.340072" HC_abs="31.840418" PMx_abs="6.306448" NOx_abs="160.855114" fuel_abs="177.170493" electricity_abs="0"/>
    </tripinfo>