<?xml version="1.0" encoding="UTF-8"?>

<!-- generated on 2021-10-26 12:17:24 by Eclipse SUMO sumo Version 1.10.0
<configuration xmlns:xsi="http://www.w3.org/2001/XMLSchema-instance" xsi:noNamespaceSchemaLocation="http://sumo.dlr.de/xsd/sumoConfiguration.xsd">

    <input>
        <net-file value="/Users/behradkoohy/sumo-scratchpad/RESCO/environments/ingolstadt21/ingolstadt21.net.xml"/>
        <route-files value="/Users/behradkoohy/sumo-scratchpad/RESCO/environments/ingolstadt21/ingolstadt21.rou.xml"/>
    </input>

    <output>
        <tripinfo-output value="/Users/behradkoohy/sumo-scratchpad/RESCO/logs/MAXWAVE-tr0-ingolstadt21-21-wave-wait/tripinfo_85.xml"/>
        <tripinfo-output.write-unfinished value="true"/>
    </output>

    <time>
        <begin value="57600"/>
        <end value="61200"/>
    </time>

    <processing>
        <time-to-teleport value="-1"/>
    </processing>

    <report>
        <no-warnings value="true"/>
        <no-step-log value="true"/>
    </report>

    <emissions>
        <device.emissions.probability value="1"/>
    </emissions>

    <traci_server>
        <remote-port value="58148"/>
    </traci_server>

    <random_number>
        <random value="true"/>
    </random_number>

</configuration>
-->

<tripinfos xmlns:xsi="http://www.w3.org/2001/XMLSchema-instance" xsi:noNamespaceSchemaLocation="http://sumo.dlr.de/xsd/tripinfo_file.xsd">
    <tripinfo id="h15454c2:3" depart="57612.00" departLane="24608844_1" departPos="5.10" departSpeed="0.00" departDelay="0.50" arrival="57653.00" arrivalLane="32978638#0_1" arrivalPos="49.29" arrivalSpeed="12.90" duration="41.00" routeLength="354.79" waitingTime="0.00" waitingCount="0" stopTime="0.00" timeLoss="6.46" rerouteNo="1" devices="tripinfo_h15454c2:3 routing_h15454c2:3 emissions_h15454c2:3" vType="default_016" speedFactor="1.01" vaporized="">
        <emissions CO_abs="2109.401091" CO2_abs="112415.528060" HC_abs="12.251470" PMx_abs="2.093229" NOx_abs="47.072640" fuel_abs="48.322745" electricity_abs="0"/>
    </tripinfo>
    <tripinfo id="carIn60260:1" depart="57606.00" departLane="315358254#0_1" departPos="5.10" departSpeed="0.00" departDelay="0.90" arrival="57666.00" arrivalLane="399835085#1_1" arrivalPos="212.23" arrivalSpeed="7.27" duration="60.00" routeLength="430.98" waitingTime="0.00" waitingCount="0" stopTime="0.00" timeLoss="7.20" rerouteNo="1" devices="tripinfo_carIn60260:1 routing_carIn60260:1 emissions_carIn60260:1" vType="default_016" speedFactor="0.88" vaporized="">
        <emissions CO_abs="2512.864294" CO2_abs="115741.233812" HC_abs="14.105579" PMx_abs="1.908107" NOx_abs="47.084018" fuel_abs="49.752974" electricity_abs="0"/>
    </tripinfo>
    <tripinfo id="carIn53971:1" depart="57640.00" departLane="272042143_1" departPos="5.10" departSpeed="0.00" departDelay="0.80" arrival="57699.00" arrivalLane="24634414#1_1" arrivalPos="162.19" arrivalSpeed="6.89" duration="59.00" routeLength="493.04" waitingTime="0.00" waitingCount="0" stopTime="0.00" timeLoss="7.88" rerouteNo="1" devices="tripinfo_carIn53971:1 routing_carIn53971:1 emissions_carIn53971:1" vType="default_016" speedFactor="0.89" vaporized="">
        <emissions CO_abs="2568.389880" CO2_abs="131005.709639" HC_abs="14.736333" PMx_abs="2.238772" NOx_abs="53.606256" fuel_abs="56.314285" electricity_abs="0"/>
    </tripinfo>
    <tripinfo id="S5R_frequency1.2" depart="57616.00" departLane="315358250#0_1" departPos="12.10" departSpeed="0.00" departDelay="4.40" arrival="57710.00" arrivalLane="386687235_1" arrivalPos="80.84" arrivalSpeed="13.70" duration="94.00" routeLength="1115.62" waitingTime="0.00" waitingCount="0" stopTime="0.00" timeLoss="12.56" rerouteNo="1" devices="tripinfo_S5R_frequency1.2 routing_S5R_frequency1.2 emissions_S5R_frequency1.2" vType="bus" speedFactor="1.00" vaporized="">
        <emissions CO_abs="1817.150806" CO2_abs="1155146.781645" HC_abs="381.030596" PMx_abs="195.104118" NOx_abs="8919.513791" fuel_abs="492.661655" electricity_abs="0"/>
    </tripinfo>
    <tripinfo id="carIn22761:1" depart="57616.00" departLane="-306240162#1_0" departPos="5.10" departSpeed="0.00" departDelay="2.10" arrival="57711.00" arrivalLane="399835085#1_1" arrivalPos="212.23" arrivalSpeed="8.34" duration="95.00" routeLength="1093.26" waitingTime="4.00" waitingCount="1" stopTime="0.00" timeLoss="22.10" rerouteNo="1" devices="tripinfo_carIn22761:1 routing_carIn22761:1 emissions_carIn22761:1" vType="default_016" speedFactor="1.07" vaporized="">
        <emissions CO_abs="5032.768581" CO2_abs="309198.496905" HC_abs="30.316531" PMx_abs="6.053421" NOx_abs="128.704443" fuel_abs="132.910702" electricity_abs="0"/>
    </tripinfo>
    <tripinfo id="carIn80064:1" depart="57603.00" departLane="128361109#1_1" departPos="5.10" departSpeed="0.00" departDelay="0.40" arrival="57712.00" arrivalLane="-315358254#1_1" arrivalPos="137.16" arrivalSpeed="13.70" duration="109.00" routeLength="1587.97" waitingTime="2.00" waitingCount="1" stopTime="0.00" timeLoss="25.46" rerouteNo="1" devices="tripinfo_carIn80064:1 routing_carIn80064:1 emissions_carIn80064:1" vType="default_016" speedFactor="1.07" vaporized="">
        <emissions CO_abs="6398.324108" CO2_abs="445185.400371" HC_abs="39.884912" PMx_abs="8.900312" NOx_abs="184.231448" fuel_abs="191.364662" electricity_abs="0"/>
    </tripinfo>
    <tripinfo id="h12244c1:3" depart="57612.00" departLane="315358244_1" departPos="5.10" departSpeed="0.00" departDelay="0.40" arrival="57713.00" arrivalLane="386687235_1" arrivalPos="80.84" arrivalSpeed="12.71" duration="101.00" routeLength="1186.14" waitingTime="0.00" waitingCount="0" stopTime="0.00" timeLoss="9.18" rerouteNo="1" devices="tripinfo_h12244c1:3 routing_h12244c1:3 emissions_h12244c1:3" vType="default_016" speedFactor="0.95" vaporized="">
        <emissions CO_abs="2701.269144" CO2_abs="227867.586007" HC_abs="17.595146" PMx_abs="3.498143" NOx_abs="88.859614" fuel_abs="97.950741" electricity_abs="0"/>
    </tripinfo>
    <tripinfo id="h3688c1:1" depart="57625.00" departLane="201201950#1_1" departPos="5.10" departSpeed="0.00" departDelay="0.00" arrival="57721.00" arrivalLane="32978638#0_1" arrivalPos="49.29" arrivalSpeed="13.36" duration="96.00" routeLength="1089.75" waitingTime="1.00" waitingCount="1" stopTime="0.00" timeLoss="15.51" rerouteNo="1" devices="tripinfo_h3688c1:1 routing_h3688c1:1 emissions_h3688c1:1" vType="default_016" speedFactor="0.99" vaporized="">
        <emissions CO_abs="3741.585869" CO2_abs="267830.717360" HC_abs="23.294118" PMx_abs="4.500596" NOx_abs="107.341148" fuel_abs="115.129066" electricity_abs="0"/>
    </tripinfo>
    <tripinfo id="h7800c1:5" depart="57696.00" departLane="-447569998#1_1" departPos="5.10" departSpeed="0.00" departDelay="0.00" arrival="57723.00" arrivalLane="-447569998#1_1" arrivalPos="180.76" arrivalSpeed="6.92" duration="27.00" routeLength="175.66" waitingTime="0.00" waitingCount="0" stopTime="0.00" timeLoss="3.50" rerouteNo="1" devices="tripinfo_h7800c1:5 routing_h7800c1:5 emissions_h7800c1:5" vType="default_016" speedFactor="0.92" vaporized="">
        <emissions CO_abs="1187.135566" CO2_abs="48392.456835" HC_abs="6.523591" PMx_abs="0.849118" NOx_abs="20.103060" fuel_abs="20.802198" electricity_abs="0"/>
    </tripinfo>
    <tripinfo id="h9563c2:5" depart="57631.00" departLane="315358244_1" departPos="5.10" departSpeed="0.00" departDelay="0.70" arrival="57729.00" arrivalLane="386687235_1" arrivalPos="80.84" arrivalSpeed="12.13" duration="98.00" routeLength="1186.14" waitingTime="0.00" waitingCount="0" stopTime="0.00" timeLoss="7.85" rerouteNo="1" devices="tripinfo_h9563c2:5 routing_h9563c2:5 emissions_h9563c2:5" vType="default_016" speedFactor="0.97" vaporized="">
        <emissions CO_abs="2468.366366" CO2_abs="216465.042952" HC_abs="16.286926" PMx_abs="3.384132" NOx_abs="84.642260" fuel_abs="93.049105" electricity_abs="0"/>
    </tripinfo>
    <tripinfo id="carIn30817:1" depart="57681.00" departLane="315358244_1" departPos="5.10" departSpeed="0.00" departDelay="0.20" arrival="57743.00" arrivalLane="447569997#1_1" arrivalPos="180.93" arrivalSpeed="8.40" duration="62.00" routeLength="718.04" waitingTime="0.00" waitingCount="0" stopTime="0.00" timeLoss="8.31" rerouteNo="1" devices="tripinfo_carIn30817:1 routing_carIn30817:1 emissions_carIn30817:1" vType="default_016" speedFactor="1.15" vaporized="">
        <emissions CO_abs="2176.738875" CO2_abs="145435.832094" HC_abs="13.256184" PMx_abs="2.411312" NOx_abs="58.040849" fuel_abs="62.516865" electricity_abs="0"/>
    </tripinfo>
    <tripinfo id="h3568c1:3" depart="57656.00" departLane="266565295#5_1" departPos="5.10" departSpeed="0.00" departDelay="0.80" arrival="57744.00" arrivalLane="-24634415_1" arrivalPos="62.03" arrivalSpeed="13.92" duration="88.00" routeLength="807.40" waitingTime="9.00" waitingCount="1" stopTime="0.00" timeLoss="25.36" rerouteNo="1" devices="tripinfo_h3568c1:3 routing_h3568c1:3 emissions_h3568c1:3" vType="default_016" speedFactor="1.03" vaporized="">
        <emissions CO_abs="4502.131886" CO2_abs="255959.394349" HC_abs="26.480617" PMx_abs="4.640671" NOx_abs="105.438414" fuel_abs="110.026287" electricity_abs="0"/>
    </tripinfo>
    <tripinfo id="h317c2:1" depart="57707.00" departLane="-32978638#0_1" departPos="5.10" departSpeed="0.00" departDelay="0.10" arrival="57745.00" arrivalLane="-266565295#5_1" arrivalPos="172.76" arrivalSpeed="13.03" duration="38.00" routeLength="370.53" waitingTime="1.00" waitingCount="1" stopTime="0.00" timeLoss="10.61" rerouteNo="1" devices="tripinfo_h317c2:1 routing_h317c2:1 emissions_h317c2:1" vType="default_016" speedFactor="1.02" vaporized="">
        <emissions CO_abs="1988.884746" CO2_abs="120141.831488" HC_abs="11.872536" PMx_abs="2.158969" NOx_abs="49.301052" fuel_abs="51.643903" electricity_abs="0"/>
    </tripinfo>
    <tripinfo id="h7181c1:1" depart="57660.00" departLane="315358254#0_1" departPos="5.10" departSpeed="0.00" departDelay="0.10" arrival="57751.00" arrivalLane="306240162#0_0" arrivalPos="220.43" arrivalSpeed="17.10" duration="91.00" routeLength="932.35" waitingTime="22.00" waitingCount="2" stopTime="0.00" timeLoss="41.44" rerouteNo="1" devices="tripinfo_h7181c1:1 routing_h7181c1:1 emissions_h7181c1:1" vType="default_016" speedFactor="1.05" vaporized="">
        <emissions CO_abs="5980.242323" CO2_abs="316713.503494" HC_abs="34.772999" PMx_abs="6.343646" NOx_abs="131.798730" fuel_abs="136.141647" electricity_abs="0"/>
    </tripinfo>
    <tripinfo id="h4538c1:1" depart="57701.00" departLane="-10427692#1_1" departPos="5.10" departSpeed="0.00" departDelay="0.00" arrival="57755.00" arrivalLane="-128361102#1_1" arrivalPos="274.68" arrivalSpeed="14.05" duration="54.00" routeLength="440.74" waitingTime="13.00" waitingCount="1" stopTime="0.00" timeLoss="23.34" rerouteNo="1" devices="tripinfo_h4538c1:1 routing_h4538c1:1 emissions_h4538c1:1" vType="default_016" speedFactor="1.04" vaporized="">
        <emissions CO_abs="2980.243941" CO2_abs="132302.335158" HC_abs="16.680534" PMx_abs="2.521792" NOx_abs="55.200312" fuel_abs="56.871649" electricity_abs="0"/>
    </tripinfo>
    <tripinfo id="carIn27009:1" depart="57673.00" departLane="-447569998#1_1" departPos="5.10" departSpeed="0.00" departDelay="0.50" arrival="57766.00" arrivalLane="-26677539_1" arrivalPos="152.75" arrivalSpeed="8.96" duration="93.00" routeLength="699.63" waitingTime="4.00" waitingCount="1" stopTime="0.00" timeLoss="19.68" rerouteNo="1" devices="tripinfo_carIn27009:1 routing_carIn27009:1 emissions_carIn27009:1" vType="default_015" speedFactor="1.14" vaporized="">
        <emissions CO_abs="4180.410129" CO2_abs="209721.602624" HC_abs="23.888669" PMx_abs="3.531718" NOx_abs="85.685463" fuel_abs="90.151318" electricity_abs="0"/>
    </tripinfo>
    <tripinfo id="h3326c1:2" depart="57656.00" departLane="22716069#0_1" departPos="5.10" departSpeed="0.00" departDelay="0.00" arrival="57773.00" arrivalLane="24634517#13_1" arrivalPos="111.62" arrivalSpeed="12.75" duration="117.00" routeLength="1312.81" waitingTime="0.00" waitingCount="0" stopTime="0.00" timeLoss="13.77" rerouteNo="1" devices="tripinfo_h3326c1:2 routing_h3326c1:2 emissions_h3326c1:2" vType="default_016" speedFactor="0.94" vaporized="">
        <emissions CO_abs="3887.481451" CO2_abs="290938.051273" HC_abs="24.503659" PMx_abs="4.825673" NOx_abs="116.399611" fuel_abs="125.061855" electricity_abs="0"/>
    </tripinfo>
    <tripinfo id="h330c1:1" depart="57736.00" departLane="-32978638#0_1" departPos="5.10" departSpeed="0.00" departDelay="0.20" arrival="57773.00" arrivalLane="-266565295#5_1" arrivalPos="172.76" arrivalSpeed="15.31" duration="37.00" routeLength="370.53" waitingTime="3.00" waitingCount="1" stopTime="0.00" timeLoss="12.21" rerouteNo="1" devices="tripinfo_h330c1:1 routing_h330c1:1 emissions_h330c1:1" vType="default_016" speedFactor="1.11" vaporized="">
        <emissions CO_abs="2224.112828" CO2_abs="134253.129554" HC_abs="13.258048" PMx_abs="2.517841" NOx_abs="55.655976" fuel_abs="57.709600" electricity_abs="0"/>
    </tripinfo>
    <tripinfo id="h645c1:1" depart="57622.00" departLane="266565295#5_1" departPos="5.10" departSpeed="0.00" departDelay="0.40" arrival="57782.00" arrivalLane="-315358244_1" arrivalPos="33.95" arrivalSpeed="12.52" duration="160.00" routeLength="1910.83" waitingTime="0.00" waitingCount="0" stopTime="0.00" timeLoss="11.80" rerouteNo="1" devices="tripinfo_h645c1:1 routing_h645c1:1 emissions_h645c1:1" vType="default_016" speedFactor="0.93" vaporized="">
        <emissions CO_abs="3810.755208" CO2_abs="351823.896703" HC_abs="25.494892" PMx_abs="5.171875" NOx_abs="135.442037" fuel_abs="151.234442" electricity_abs="0"/>
    </tripinfo>
    <tripinfo id="h3154c1:1" depart="57658.00" departLane="24634507_1" departPos="5.10" departSpeed="0.00" departDelay="0.00" arrival="57787.00" arrivalLane="-266565295#5_1" arrivalPos="172.76" arrivalSpeed="12.25" duration="129.00" routeLength="1206.22" waitingTime="7.00" waitingCount="2" stopTime="0.00" timeLoss="35.80" rerouteNo="1" devices="tripinfo_h3154c1:1 routing_h3154c1:1 emissions_h3154c1:1" vType="default_016" speedFactor="0.96" vaporized="">
        <emissions CO_abs="5342.988888" CO2_abs="330872.556670" HC_abs="32.086019" PMx_abs="5.791500" NOx_abs="135.036242" fuel_abs="142.228248" electricity_abs="0"/>
    </tripinfo>
    <tripinfo id="carIn86816:1" depart="57617.00" departLane="128361102#0_1" departPos="5.10" departSpeed="0.00" departDelay="0.80" arrival="57791.00" arrivalLane="201956811#0_1" arrivalPos="40.40" arrivalSpeed="12.71" duration="174.00" routeLength="2067.33" waitingTime="2.00" waitingCount="1" stopTime="0.00" timeLoss="22.27" rerouteNo="1" devices="tripinfo_carIn86816:1 routing_carIn86816:1 emissions_carIn86816:1" vType="default_016" speedFactor="1.00" vaporized="">
        <emissions CO_abs="5350.788208" CO2_abs="428867.969942" HC_abs="34.394717" PMx_abs="6.978618" NOx_abs="169.779052" fuel_abs="184.352021" electricity_abs="0"/>
    </tripinfo>
    <tripinfo id="h16072c2:3" depart="57663.00" departLane="315358254#0_1" departPos="5.10" departSpeed="0.00" departDelay="2.50" arrival="57791.00" arrivalLane="386687235_2" arrivalPos="80.84" arrivalSpeed="14.53" duration="128.00" routeLength="1611.92" waitingTime="0.00" waitingCount="0" stopTime="0.00" timeLoss="16.95" rerouteNo="1" devices="tripinfo_h16072c2:3 routing_h16072c2:3 emissions_h16072c2:3" vType="default_016" speedFactor="1.06" vaporized="">
        <emissions CO_abs="4206.934446" CO2_abs="353951.892132" HC_abs="27.350331" PMx_abs="5.819062" NOx_abs="139.772690" fuel_abs="152.148584" electricity_abs="0"/>
    </tripinfo>
    <tripinfo id="carIn48184:1" depart="57613.00" departLane="-306240162#1_0" departPos="5.10" departSpeed="0.00" departDelay="0.70" arrival="57794.00" arrivalLane="386687235_1" arrivalPos="80.84" arrivalSpeed="13.11" duration="181.00" routeLength="2257.41" waitingTime="5.00" waitingCount="2" stopTime="0.00" timeLoss="33.54" rerouteNo="1" devices="tripinfo_carIn48184:1 routing_carIn48184:1 emissions_carIn48184:1" vType="default_016" speedFactor="1.01" vaporized="">
        <emissions CO_abs="7235.568350" CO2_abs="524580.530467" HC_abs="45.348521" PMx_abs="9.477936" NOx_abs="212.383791" fuel_abs="225.494048" electricity_abs="0"/>
    </tripinfo>
    <tripinfo id="carIn82220:1" depart="57619.00" departLane="-306240162#1_0" departPos="5.10" departSpeed="0.00" departDelay="3.50" arrival="57794.00" arrivalLane="386687235_2" arrivalPos="80.84" arrivalSpeed="13.41" duration="175.00" routeLength="2257.41" waitingTime="2.00" waitingCount="1" stopTime="0.00" timeLoss="27.18" rerouteNo="1" devices="tripinfo_carIn82220:1 routing_carIn82220:1 emissions_carIn82220:1" vType="default_016" speedFactor="1.00" vaporized="">
        <emissions CO_abs="6289.199817" CO2_abs="498039.619430" HC_abs="40.351255" PMx_abs="8.668758" NOx_abs="198.985903" fuel_abs="214.085338" electricity_abs="0"/>
    </tripinfo>
    <tripinfo id="carIn12365:1" depart="57713.00" departLane="315358244_1" departPos="5.10" departSpeed="0.00" departDelay="0.50" arrival="57795.00" arrivalLane="447569997#1_1" arrivalPos="180.93" arrivalSpeed="6.86" duration="82.00" routeLength="718.04" waitingTime="0.00" waitingCount="0" stopTime="0.00" timeLoss="11.74" rerouteNo="1" devices="tripinfo_carIn12365:1 routing_carIn12365:1 emissions_carIn12365:1" vType="default_016" speedFactor="0.87" vaporized="">
        <emissions CO_abs="2774.228502" CO2_abs="149851.867557" HC_abs="16.082273" PMx_abs="2.363018" NOx_abs="59.753864" fuel_abs="64.415711" electricity_abs="0"/>
    </tripinfo>
    <tripinfo id="carIn107282:1" depart="57749.00" departLane="-447569998#1_1" departPos="5.10" departSpeed="0.00" departDelay="0.00" arrival="57795.00" arrivalLane="315358242#0_1" arrivalPos="165.37" arrivalSpeed="13.32" duration="46.00" routeLength="448.50" waitingTime="0.00" waitingCount="0" stopTime="0.00" timeLoss="5.38" rerouteNo="1" devices="tripinfo_carIn107282:1 routing_carIn107282:1 emissions_carIn107282:1" vType="default_016" speedFactor="1.03" vaporized="">
        <emissions CO_abs="1900.916008" CO2_abs="111488.063855" HC_abs="11.245062" PMx_abs="1.841089" NOx_abs="44.886562" fuel_abs="47.924292" electricity_abs="0"/>
    </tripinfo>
    <tripinfo id="h11737c1:1" depart="57665.00" departLane="272042143_1" departPos="5.10" departSpeed="0.00" departDelay="1.50" arrival="57797.00" arrivalLane="-315358254#1_1" arrivalPos="137.16" arrivalSpeed="13.74" duration="132.00" routeLength="1596.88" waitingTime="1.00" waitingCount="1" stopTime="0.00" timeLoss="14.83" rerouteNo="1" devices="tripinfo_h11737c1:1 routing_h11737c1:1 emissions_h11737c1:1" vType="default_016" speedFactor="1.00" vaporized="">
        <emissions CO_abs="4274.668951" CO2_abs="328218.235832" HC_abs="27.157681" PMx_abs="5.539716" NOx_abs="131.372736" fuel_abs="141.086831" electricity_abs="0"/>
    </tripinfo>
    <tripinfo id="carIn107084:1" depart="57601.00" departLane="124812856#0_1" departPos="5.10" departSpeed="0.00" departDelay="0.70" arrival="57798.00" arrivalLane="-128361102#1_1" arrivalPos="274.68" arrivalSpeed="12.37" duration="197.00" routeLength="2250.49" waitingTime="2.00" waitingCount="1" stopTime="0.00" timeLoss="25.06" rerouteNo="1" devices="tripinfo_carIn107084:1 routing_carIn107084:1 emissions_carIn107084:1" vType="default_016" speedFactor="0.96" vaporized="">
        <emissions CO_abs="5764.315313" CO2_abs="464539.820049" HC_abs="37.082779" PMx_abs="7.416883" NOx_abs="183.331767" fuel_abs="199.685980" electricity_abs="0"/>
    </tripinfo>
    <tripinfo id="h5979c1:5" depart="57669.00" departLane="399835085#1_1" departPos="5.10" departSpeed="0.00" departDelay="0.00" arrival="57798.00" arrivalLane="-315358254#1_1" arrivalPos="137.16" arrivalSpeed="14.44" duration="129.00" routeLength="659.33" waitingTime="44.00" waitingCount="1" stopTime="0.00" timeLoss="58.44" rerouteNo="1" devices="tripinfo_h5979c1:5 routing_h5979c1:5 emissions_h5979c1:5" vType="default_016" speedFactor="1.04" vaporized="">
        <emissions CO_abs="9938.024535" CO2_abs="288316.907407" HC_abs="51.957472" PMx_abs="5.651609" NOx_abs="122.459003" fuel_abs="123.938862" electricity_abs="0"/>
    </tripinfo>
    <tripinfo id="carIn77943:1" depart="57608.00" departLane="124812856#0_1" departPos="5.10" departSpeed="0.00" departDelay="2.50" arrival="57807.00" arrivalLane="-128361102#1_1" arrivalPos="274.68" arrivalSpeed="12.95" duration="199.00" routeLength="2250.49" waitingTime="0.00" waitingCount="0" stopTime="0.00" timeLoss="23.42" rerouteNo="1" devices="tripinfo_carIn77943:1 routing_carIn77943:1 emissions_carIn77943:1" vType="default_016" speedFactor="0.93" vaporized="">
        <emissions CO_abs="6300.216554" CO2_abs="483152.304576" HC_abs="39.964157" PMx_abs="7.828538" NOx_abs="191.905794" fuel_abs="207.686734" electricity_abs="0"/>
    </tripinfo>
    <tripinfo id="carIn118591:1" depart="57689.00" departLane="315358244_1" departPos="5.10" departSpeed="0.00" departDelay="0.20" arrival="57807.00" arrivalLane="386687235_1" arrivalPos="80.84" arrivalSpeed="11.42" duration="118.00" routeLength="1186.14" waitingTime="6.00" waitingCount="2" stopTime="0.00" timeLoss="20.34" rerouteNo="1" devices="tripinfo_carIn118591:1 routing_carIn118591:1 emissions_carIn118591:1" vType="default_016" speedFactor="0.88" vaporized="">
        <emissions CO_abs="3516.530354" CO2_abs="238974.553354" HC_abs="21.540030" PMx_abs="3.690882" NOx_abs="93.921844" fuel_abs="102.725651" electricity_abs="0"/>
    </tripinfo>
    <tripinfo id="carIn81046:1" depart="57611.00" departLane="124812856#0_1" departPos="5.10" departSpeed="0.00" departDelay="2.50" arrival="57809.00" arrivalLane="-128361102#1_1" arrivalPos="274.68" arrivalSpeed="13.00" duration="198.00" routeLength="2250.49" waitingTime="0.00" waitingCount="0" stopTime="0.00" timeLoss="26.80" rerouteNo="1" devices="tripinfo_carIn81046:1 routing_carIn81046:1 emissions_carIn81046:1" vType="default_016" speedFactor="0.97" vaporized="">
        <emissions CO_abs="6673.999198" CO2_abs="517336.729957" HC_abs="42.469494" PMx_abs="8.423225" NOx_abs="205.607564" fuel_abs="222.381061" electricity_abs="0"/>
    </tripinfo>
    <tripinfo id="carIn82278:1" depart="57702.00" departLane="-306240162#1_0" departPos="5.10" departSpeed="0.00" departDelay="0.70" arrival="57812.00" arrivalLane="399835085#1_1" arrivalPos="212.23" arrivalSpeed="8.13" duration="110.00" routeLength="1093.26" waitingTime="18.00" waitingCount="1" stopTime="0.00" timeLoss="37.45" rerouteNo="1" devices="tripinfo_carIn82278:1 routing_carIn82278:1 emissions_carIn82278:1" vType="default_016" speedFactor="1.08" vaporized="">
        <emissions CO_abs="7320.689568" CO2_abs="359474.216582" HC_abs="41.851443" PMx_abs="7.072106" NOx_abs="149.873637" fuel_abs="154.523195" electricity_abs="0"/>
    </tripinfo>
    <tripinfo id="carIn116184:1" depart="57627.00" departLane="-306240162#1_0" departPos="5.10" departSpeed="0.00" departDelay="0.10" arrival="57813.00" arrivalLane="386687235_2" arrivalPos="80.84" arrivalSpeed="15.69" duration="186.00" routeLength="2257.41" waitingTime="10.00" waitingCount="3" stopTime="0.00" timeLoss="55.58" rerouteNo="1" devices="tripinfo_carIn116184:1 routing_carIn116184:1 emissions_carIn116184:1" vType="default_016" speedFactor="1.14" vaporized="">
        <emissions CO_abs="8373.190279" CO2_abs="568783.397330" HC_abs="51.548898" PMx_abs="10.695600" NOx_abs="233.627590" fuel_abs="244.494642" electricity_abs="0"/>
    </tripinfo>
    <tripinfo id="carIn462:1" depart="57622.00" departLane="-306240162#1_0" departPos="5.10" departSpeed="0.00" departDelay="4.80" arrival="57814.00" arrivalLane="386687235_1" arrivalPos="80.84" arrivalSpeed="12.60" duration="192.00" routeLength="2257.41" waitingTime="8.00" waitingCount="2" stopTime="0.00" timeLoss="40.23" rerouteNo="1" devices="tripinfo_carIn462:1 routing_carIn462:1 emissions_carIn462:1" vType="default_016" speedFactor="0.98" vaporized="">
        <emissions CO_abs="7375.306627" CO2_abs="514440.289194" HC_abs="45.711404" PMx_abs="9.102292" NOx_abs="207.752099" fuel_abs="221.135668" electricity_abs="0"/>
    </tripinfo>
    <tripinfo id="carIn31257:1" depart="57630.00" departLane="-306240162#1_0" departPos="5.10" departSpeed="0.00" departDelay="1.60" arrival="57816.00" arrivalLane="386687235_1" arrivalPos="80.84" arrivalSpeed="13.42" duration="186.00" routeLength="2257.41" waitingTime="4.00" waitingCount="2" stopTime="0.00" timeLoss="36.82" rerouteNo="1" devices="tripinfo_carIn31257:1 routing_carIn31257:1 emissions_carIn31257:1" vType="default_016" speedFactor="1.00" vaporized="">
        <emissions CO_abs="6872.557224" CO2_abs="494968.403621" HC_abs="42.954073" PMx_abs="8.708667" NOx_abs="199.301835" fuel_abs="212.765455" electricity_abs="0"/>
    </tripinfo>
    <tripinfo id="carIn50326:1" depart="57651.00" departLane="128361102#0_1" departPos="5.10" departSpeed="0.00" departDelay="0.30" arrival="57816.00" arrivalLane="18809673#0_1" arrivalPos="473.56" arrivalSpeed="12.40" duration="165.00" routeLength="1591.07" waitingTime="2.00" waitingCount="1" stopTime="0.00" timeLoss="22.07" rerouteNo="1" devices="tripinfo_carIn50326:1 routing_carIn50326:1 emissions_carIn50326:1" vType="default_016" speedFactor="0.90" vaporized="">
        <emissions CO_abs="5454.111282" CO2_abs="353636.809617" HC_abs="33.010743" PMx_abs="5.523985" NOx_abs="139.954335" fuel_abs="152.014452" electricity_abs="0"/>
    </tripinfo>
    <tripinfo id="carIn12858:1" depart="57661.00" departLane="128361109#1_1" departPos="5.10" departSpeed="0.00" departDelay="0.90" arrival="57816.00" arrivalLane="399835085#1_1" arrivalPos="212.23" arrivalSpeed="8.33" duration="155.00" routeLength="1738.12" waitingTime="8.00" waitingCount="2" stopTime="0.00" timeLoss="40.76" rerouteNo="1" devices="tripinfo_carIn12858:1 routing_carIn12858:1 emissions_carIn12858:1" vType="default_016" speedFactor="1.01" vaporized="">
        <emissions CO_abs="8186.885906" CO2_abs="520803.496132" HC_abs="49.711472" PMx_abs="10.145770" NOx_abs="215.968848" fuel_abs="223.870167" electricity_abs="0"/>
    </tripinfo>
    <tripinfo id="carIn126288:1" depart="57674.00" departLane="272042143_1" departPos="5.10" departSpeed="0.00" departDelay="0.00" arrival="57817.00" arrivalLane="-315358254#1_1" arrivalPos="137.16" arrivalSpeed="13.41" duration="143.00" routeLength="1596.88" waitingTime="8.00" waitingCount="1" stopTime="0.00" timeLoss="24.37" rerouteNo="1" devices="tripinfo_carIn126288:1 routing_carIn126288:1 emissions_carIn126288:1" vType="default_016" speedFactor="0.98" vaporized="">
        <emissions CO_abs="4941.670932" CO2_abs="343971.412369" HC_abs="30.540254" PMx_abs="5.662806" NOx_abs="136.722579" fuel_abs="147.859061" electricity_abs="0"/>
    </tripinfo>
    <tripinfo id="carIn12152:1" depart="57647.00" departLane="24599188#0.94_1" departPos="5.10" departSpeed="0.00" departDelay="0.50" arrival="57819.00" arrivalLane="-315358254#1_1" arrivalPos="137.16" arrivalSpeed="14.45" duration="172.00" routeLength="2034.31" waitingTime="7.00" waitingCount="1" stopTime="0.00" timeLoss="25.57" rerouteNo="1" devices="tripinfo_carIn12152:1 routing_carIn12152:1 emissions_carIn12152:1" vType="default_016" speedFactor="1.08" vaporized="">
        <emissions CO_abs="5784.573310" CO2_abs="429021.986133" HC_abs="36.333756" PMx_abs="7.307270" NOx_abs="171.452132" fuel_abs="184.418131" electricity_abs="0"/>
    </tripinfo>
    <tripinfo id="h17600c1:1" depart="57662.00" departLane="272042143_1" departPos="5.10" departSpeed="0.00" departDelay="0.30" arrival="57820.00" arrivalLane="201238729#3_1" arrivalPos="431.02" arrivalSpeed="13.28" duration="158.00" routeLength="2100.26" waitingTime="0.00" waitingCount="0" stopTime="0.00" timeLoss="10.75" rerouteNo="1" devices="tripinfo_h17600c1:1 routing_h17600c1:1 emissions_h17600c1:1" vType="default_016" speedFactor="1.03" vaporized="">
        <emissions CO_abs="3598.026807" CO2_abs="356915.444573" HC_abs="24.717598" PMx_abs="5.616588" NOx_abs="138.756887" fuel_abs="153.422396" electricity_abs="0"/>
    </tripinfo>
    <tripinfo id="carIn77438:1" depart="57614.00" departLane="124812856#0_1" departPos="5.10" departSpeed="0.00" departDelay="1.10" arrival="57830.00" arrivalLane="-128361102#1_1" arrivalPos="274.68" arrivalSpeed="12.01" duration="216.00" routeLength="2250.49" waitingTime="5.00" waitingCount="1" stopTime="0.00" timeLoss="33.30" rerouteNo="1" devices="tripinfo_carIn77438:1 routing_carIn77438:1 emissions_carIn77438:1" vType="default_016" speedFactor="0.90" vaporized="">
        <emissions CO_abs="6965.822379" CO2_abs="497203.789980" HC_abs="43.284806" PMx_abs="7.993075" NOx_abs="197.819665" fuel_abs="213.727305" electricity_abs="0"/>
    </tripinfo>
    <tripinfo id="carIn81860:1" depart="57712.00" departLane="128361102#0_1" departPos="5.10" departSpeed="0.00" departDelay="0.60" arrival="57830.00" arrivalLane="-24634517#17_1" arrivalPos="6.43" arrivalSpeed="7.52" duration="118.00" routeLength="1229.64" waitingTime="3.00" waitingCount="1" stopTime="0.00" timeLoss="18.00" rerouteNo="1" devices="tripinfo_carIn81860:1 routing_carIn81860:1 emissions_carIn81860:1" vType="default_016" speedFactor="0.90" vaporized="">
        <emissions CO_abs="3677.814018" CO2_abs="251081.013366" HC_abs="22.561521" PMx_abs="3.912284" NOx_abs="98.908636" fuel_abs="107.929669" electricity_abs="0"/>
    </tripinfo>
    <tripinfo id="carIn46110:1" depart="57684.00" departLane="315358244_1" departPos="5.10" departSpeed="0.00" departDelay="1.20" arrival="57831.00" arrivalLane="32978638#0_1" arrivalPos="49.29" arrivalSpeed="12.95" duration="147.00" routeLength="1764.04" waitingTime="4.00" waitingCount="1" stopTime="0.00" timeLoss="18.93" rerouteNo="1" devices="tripinfo_carIn46110:1 routing_carIn46110:1 emissions_carIn46110:1" vType="default_016" speedFactor="1.00" vaporized="">
        <emissions CO_abs="3866.370165" CO2_abs="339335.639245" HC_abs="25.492263" PMx_abs="5.236258" NOx_abs="131.918465" fuel_abs="145.866075" electricity_abs="0"/>
    </tripinfo>