<?xml version="1.0" encoding="UTF-8"?>

<!-- generated on 2021-10-26 12:10:25 by Eclipse SUMO sumo Version 1.10.0
<configuration xmlns:xsi="http://www.w3.org/2001/XMLSchema-instance" xsi:noNamespaceSchemaLocation="http://sumo.dlr.de/xsd/sumoConfiguration.xsd">

    <input>
        <net-file value="/Users/behradkoohy/sumo-scratchpad/RESCO/environments/ingolstadt21/ingolstadt21.net.xml"/>
        <route-files value="/Users/behradkoohy/sumo-scratchpad/RESCO/environments/ingolstadt21/ingolstadt21.rou.xml"/>
    </input>

    <output>
        <tripinfo-output value="/Users/behradkoohy/sumo-scratchpad/RESCO/logs/MAXWAVE-tr0-ingolstadt21-21-wave-wait/tripinfo_75.xml"/>
        <tripinfo-output.write-unfinished value="true"/>
    </output>

    <time>
        <begin value="57600"/>
        <end value="61200"/>
    </time>

    <processing>
        <time-to-teleport value="-1"/>
    </processing>

    <report>
        <no-warnings value="true"/>
        <no-step-log value="true"/>
    </report>

    <emissions>
        <device.emissions.probability value="1"/>
    </emissions>

    <traci_server>
        <remote-port value="58006"/>
    </traci_server>

    <random_number>
        <random value="true"/>
    </random_number>

</configuration>
-->

<tripinfos xmlns:xsi="http://www.w3.org/2001/XMLSchema-instance" xsi:noNamespaceSchemaLocation="http://sumo.dlr.de/xsd/tripinfo_file.xsd">
    <tripinfo id="h15454c2:3" depart="57612.00" departLane="24608844_1" departPos="5.10" departSpeed="0.00" departDelay="0.50" arrival="57651.00" arrivalLane="32978638#0_1" arrivalPos="49.29" arrivalSpeed="14.27" duration="39.00" routeLength="354.79" waitingTime="0.00" waitingCount="0" stopTime="0.00" timeLoss="5.96" rerouteNo="1" devices="tripinfo_h15454c2:3 routing_h15454c2:3 emissions_h15454c2:3" vType="default_016" speedFactor="1.04" vaporized="">
        <emissions CO_abs="2170.010866" CO2_abs="121370.754802" HC_abs="12.707217" PMx_abs="2.186223" NOx_abs="50.211904" fuel_abs="52.172254" electricity_abs="0"/>
    </tripinfo>
    <tripinfo id="carIn60260:1" depart="57606.00" departLane="315358254#0_1" departPos="5.10" departSpeed="0.00" departDelay="0.90" arrival="57657.00" arrivalLane="399835085#1_1" arrivalPos="212.23" arrivalSpeed="7.46" duration="51.00" routeLength="430.98" waitingTime="0.00" waitingCount="0" stopTime="0.00" timeLoss="6.62" rerouteNo="1" devices="tripinfo_carIn60260:1 routing_carIn60260:1 emissions_carIn60260:1" vType="default_016" speedFactor="1.04" vaporized="">
        <emissions CO_abs="2129.228800" CO2_abs="111397.882081" HC_abs="12.267010" PMx_abs="1.821461" NOx_abs="45.067217" fuel_abs="47.885716" electricity_abs="0"/>
    </tripinfo>
    <tripinfo id="carIn53971:1" depart="57640.00" departLane="272042143_1" departPos="5.10" departSpeed="0.00" departDelay="0.80" arrival="57691.00" arrivalLane="24634414#1_1" arrivalPos="162.19" arrivalSpeed="8.29" duration="51.00" routeLength="493.04" waitingTime="0.00" waitingCount="0" stopTime="0.00" timeLoss="9.80" rerouteNo="1" devices="tripinfo_carIn53971:1 routing_carIn53971:1 emissions_carIn53971:1" vType="default_016" speedFactor="1.12" vaporized="">
        <emissions CO_abs="2621.062985" CO2_abs="153864.381299" HC_abs="15.559103" PMx_abs="2.804263" NOx_abs="63.662980" fuel_abs="66.139782" electricity_abs="0"/>
    </tripinfo>
    <tripinfo id="h12244c1:3" depart="57612.00" departLane="315358244_1" departPos="5.10" departSpeed="0.00" departDelay="0.40" arrival="57702.00" arrivalLane="386687235_1" arrivalPos="80.84" arrivalSpeed="14.32" duration="90.00" routeLength="1186.14" waitingTime="0.00" waitingCount="0" stopTime="0.00" timeLoss="9.06" rerouteNo="1" devices="tripinfo_h12244c1:3 routing_h12244c1:3 emissions_h12244c1:3" vType="default_016" speedFactor="1.07" vaporized="">
        <emissions CO_abs="2656.448112" CO2_abs="247143.541281" HC_abs="17.743778" PMx_abs="3.912395" NOx_abs="96.057823" fuel_abs="106.236338" electricity_abs="0"/>
    </tripinfo>
    <tripinfo id="carIn80064:1" depart="57603.00" departLane="128361109#1_1" departPos="5.10" departSpeed="0.00" departDelay="0.40" arrival="57713.00" arrivalLane="-315358254#1_1" arrivalPos="137.16" arrivalSpeed="14.04" duration="110.00" routeLength="1587.97" waitingTime="1.00" waitingCount="1" stopTime="0.00" timeLoss="27.50" rerouteNo="1" devices="tripinfo_carIn80064:1 routing_carIn80064:1 emissions_carIn80064:1" vType="default_016" speedFactor="1.08" vaporized="">
        <emissions CO_abs="7219.508974" CO2_abs="493285.054811" HC_abs="44.658018" PMx_abs="9.879365" NOx_abs="205.138147" fuel_abs="212.040455" electricity_abs="0"/>
    </tripinfo>
    <tripinfo id="S5R_frequency1.2" depart="57615.00" departLane="315358250#0_1" departPos="12.10" departSpeed="0.00" departDelay="3.40" arrival="57715.00" arrivalLane="386687235_1" arrivalPos="80.84" arrivalSpeed="12.66" duration="100.00" routeLength="1115.62" waitingTime="3.00" waitingCount="1" stopTime="0.00" timeLoss="18.63" rerouteNo="1" devices="tripinfo_S5R_frequency1.2 routing_S5R_frequency1.2 emissions_S5R_frequency1.2" vType="bus" speedFactor="1.00" vaporized="">
        <emissions CO_abs="1961.879024" CO2_abs="1217563.586533" HC_abs="418.052934" PMx_abs="210.289814" NOx_abs="9474.471578" fuel_abs="519.277349" electricity_abs="0"/>
    </tripinfo>
    <tripinfo id="h9563c2:5" depart="57631.00" departLane="315358244_1" departPos="5.10" departSpeed="0.00" departDelay="0.70" arrival="57719.00" arrivalLane="386687235_1" arrivalPos="80.84" arrivalSpeed="14.65" duration="88.00" routeLength="1186.14" waitingTime="0.00" waitingCount="0" stopTime="0.00" timeLoss="7.90" rerouteNo="1" devices="tripinfo_h9563c2:5 routing_h9563c2:5 emissions_h9563c2:5" vType="default_016" speedFactor="1.07" vaporized="">
        <emissions CO_abs="2494.210939" CO2_abs="233586.836207" HC_abs="16.628983" PMx_abs="3.725324" NOx_abs="90.980914" fuel_abs="100.408825" electricity_abs="0"/>
    </tripinfo>
    <tripinfo id="h7800c1:5" depart="57696.00" departLane="-447569998#1_1" departPos="5.10" departSpeed="0.00" departDelay="0.00" arrival="57720.00" arrivalLane="-447569998#1_1" arrivalPos="180.76" arrivalSpeed="8.07" duration="24.00" routeLength="175.66" waitingTime="0.00" waitingCount="0" stopTime="0.00" timeLoss="3.52" rerouteNo="1" devices="tripinfo_h7800c1:5 routing_h7800c1:5 emissions_h7800c1:5" vType="default_016" speedFactor="1.04" vaporized="">
        <emissions CO_abs="1115.995196" CO2_abs="49514.867098" HC_abs="6.226188" PMx_abs="0.852282" NOx_abs="20.411188" fuel_abs="21.284629" electricity_abs="0"/>
    </tripinfo>
    <tripinfo id="h3688c1:1" depart="57625.00" departLane="201201950#1_1" departPos="5.10" departSpeed="0.00" departDelay="0.00" arrival="57721.00" arrivalLane="32978638#0_1" arrivalPos="49.29" arrivalSpeed="13.07" duration="96.00" routeLength="1089.75" waitingTime="0.00" waitingCount="0" stopTime="0.00" timeLoss="15.97" rerouteNo="1" devices="tripinfo_h3688c1:1 routing_h3688c1:1 emissions_h3688c1:1" vType="default_016" speedFactor="1.00" vaporized="">
        <emissions CO_abs="3816.825433" CO2_abs="262128.892338" HC_abs="23.518027" PMx_abs="4.614996" NOx_abs="106.650459" fuel_abs="112.677876" electricity_abs="0"/>
    </tripinfo>
    <tripinfo id="h4538c1:1" depart="57701.00" departLane="-10427692#1_1" departPos="5.10" departSpeed="0.00" departDelay="0.00" arrival="57743.00" arrivalLane="-128361102#1_1" arrivalPos="274.68" arrivalSpeed="15.63" duration="42.00" routeLength="440.74" waitingTime="3.00" waitingCount="1" stopTime="0.00" timeLoss="13.48" rerouteNo="1" devices="tripinfo_h4538c1:1 routing_h4538c1:1 emissions_h4538c1:1" vType="default_016" speedFactor="1.13" vaporized="">
        <emissions CO_abs="2090.368638" CO2_abs="127659.781425" HC_abs="12.452387" PMx_abs="2.349871" NOx_abs="52.422959" fuel_abs="54.875467" electricity_abs="0"/>
    </tripinfo>
    <tripinfo id="h317c2:1" depart="57707.00" departLane="-32978638#0_1" departPos="5.10" departSpeed="0.00" departDelay="0.10" arrival="57744.00" arrivalLane="-266565295#5_1" arrivalPos="172.76" arrivalSpeed="14.03" duration="37.00" routeLength="370.53" waitingTime="1.00" waitingCount="1" stopTime="0.00" timeLoss="10.21" rerouteNo="1" devices="tripinfo_h317c2:1 routing_h317c2:1 emissions_h317c2:1" vType="default_016" speedFactor="1.03" vaporized="">
        <emissions CO_abs="2045.493448" CO2_abs="121159.841459" HC_abs="12.124857" PMx_abs="2.230075" NOx_abs="50.070607" fuel_abs="52.081447" electricity_abs="0"/>
    </tripinfo>
    <tripinfo id="h3568c1:3" depart="57656.00" departLane="266565295#5_1" departPos="5.10" departSpeed="0.00" departDelay="0.80" arrival="57748.00" arrivalLane="-24634415_1" arrivalPos="62.03" arrivalSpeed="11.85" duration="92.00" routeLength="807.40" waitingTime="6.00" waitingCount="1" stopTime="0.00" timeLoss="23.81" rerouteNo="1" devices="tripinfo_h3568c1:3 routing_h3568c1:3 emissions_h3568c1:3" vType="default_016" speedFactor="0.95" vaporized="">
        <emissions CO_abs="4056.438657" CO2_abs="239254.448791" HC_abs="24.087828" PMx_abs="4.266550" NOx_abs="98.451059" fuel_abs="102.845477" electricity_abs="0"/>
    </tripinfo>
    <tripinfo id="h7181c1:1" depart="57660.00" departLane="315358254#0_1" departPos="5.10" departSpeed="0.00" departDelay="0.10" arrival="57749.00" arrivalLane="306240162#0_0" arrivalPos="220.43" arrivalSpeed="17.78" duration="89.00" routeLength="932.35" waitingTime="22.00" waitingCount="2" stopTime="0.00" timeLoss="43.98" rerouteNo="1" devices="tripinfo_h7181c1:1 routing_h7181c1:1 emissions_h7181c1:1" vType="default_016" speedFactor="1.14" vaporized="">
        <emissions CO_abs="7717.912282" CO2_abs="381215.803082" HC_abs="44.345571" PMx_abs="8.040586" NOx_abs="161.509985" fuel_abs="163.868251" electricity_abs="0"/>
    </tripinfo>
    <tripinfo id="carIn22761:1" depart="57616.00" departLane="-306240162#1_0" departPos="5.10" departSpeed="0.00" departDelay="2.10" arrival="57752.00" arrivalLane="399835085#1_1" arrivalPos="212.23" arrivalSpeed="8.15" duration="136.00" routeLength="1093.26" waitingTime="41.00" waitingCount="1" stopTime="0.00" timeLoss="62.35" rerouteNo="1" devices="tripinfo_carIn22761:1 routing_carIn22761:1 emissions_carIn22761:1" vType="default_016" speedFactor="1.07" vaporized="">
        <emissions CO_abs="10459.900011" CO2_abs="398428.749925" HC_abs="56.939951" PMx_abs="7.820371" NOx_abs="166.053343" fuel_abs="171.270168" electricity_abs="0"/>
    </tripinfo>
    <tripinfo id="carIn30817:1" depart="57681.00" departLane="315358244_1" departPos="5.10" departSpeed="0.00" departDelay="0.20" arrival="57754.00" arrivalLane="447569997#1_1" arrivalPos="180.93" arrivalSpeed="7.44" duration="73.00" routeLength="718.04" waitingTime="0.00" waitingCount="0" stopTime="0.00" timeLoss="8.23" rerouteNo="1" devices="tripinfo_carIn30817:1 routing_carIn30817:1 emissions_carIn30817:1" vType="default_016" speedFactor="0.95" vaporized="">
        <emissions CO_abs="2292.989379" CO2_abs="151170.841496" HC_abs="13.928244" PMx_abs="2.335411" NOx_abs="59.529477" fuel_abs="64.982374" electricity_abs="0"/>
    </tripinfo>
    <tripinfo id="h3326c1:2" depart="57656.00" departLane="22716069#0_1" departPos="5.10" departSpeed="0.00" departDelay="0.00" arrival="57772.00" arrivalLane="24634517#13_1" arrivalPos="111.62" arrivalSpeed="12.68" duration="116.00" routeLength="1312.81" waitingTime="0.00" waitingCount="0" stopTime="0.00" timeLoss="15.55" rerouteNo="1" devices="tripinfo_h3326c1:2 routing_h3326c1:2 emissions_h3326c1:2" vType="default_016" speedFactor="0.97" vaporized="">
        <emissions CO_abs="4200.913163" CO2_abs="309059.143731" HC_abs="26.368783" PMx_abs="5.180972" NOx_abs="123.962554" fuel_abs="132.851322" electricity_abs="0"/>
    </tripinfo>
    <tripinfo id="h330c1:1" depart="57736.00" departLane="-32978638#0_1" departPos="5.10" departSpeed="0.00" departDelay="0.20" arrival="57778.00" arrivalLane="-266565295#5_1" arrivalPos="172.76" arrivalSpeed="11.55" duration="42.00" routeLength="370.53" waitingTime="1.00" waitingCount="1" stopTime="0.00" timeLoss="9.60" rerouteNo="1" devices="tripinfo_h330c1:1 routing_h330c1:1 emissions_h330c1:1" vType="default_016" speedFactor="0.85" vaporized="">
        <emissions CO_abs="1919.287856" CO2_abs="109648.181864" HC_abs="11.289752" PMx_abs="1.843207" NOx_abs="44.421045" fuel_abs="47.133386" electricity_abs="0"/>
    </tripinfo>
    <tripinfo id="carIn27009:1" depart="57673.00" departLane="-447569998#1_1" departPos="5.10" departSpeed="0.00" departDelay="0.50" arrival="57782.00" arrivalLane="-26677539_1" arrivalPos="152.75" arrivalSpeed="6.25" duration="109.00" routeLength="699.63" waitingTime="0.00" waitingCount="0" stopTime="0.00" timeLoss="14.74" rerouteNo="1" devices="tripinfo_carIn27009:1 routing_carIn27009:1 emissions_carIn27009:1" vType="default_015" speedFactor="0.89" vaporized="">
        <emissions CO_abs="4222.307433" CO2_abs="178795.215288" HC_abs="23.330695" PMx_abs="2.978568" NOx_abs="73.284582" fuel_abs="76.857810" electricity_abs="0"/>
    </tripinfo>
    <tripinfo id="h3154c1:1" depart="57658.00" departLane="24634507_1" departPos="5.10" departSpeed="0.00" departDelay="0.00" arrival="57788.00" arrivalLane="-266565295#5_1" arrivalPos="172.76" arrivalSpeed="12.30" duration="130.00" routeLength="1206.22" waitingTime="15.00" waitingCount="2" stopTime="0.00" timeLoss="37.02" rerouteNo="1" devices="tripinfo_h3154c1:1 routing_h3154c1:1 emissions_h3154c1:1" vType="default_016" speedFactor="0.96" vaporized="">
        <emissions CO_abs="5901.573186" CO2_abs="327251.210959" HC_abs="34.545759" PMx_abs="5.787595" NOx_abs="133.663722" fuel_abs="140.672050" electricity_abs="0"/>
    </tripinfo>
    <tripinfo id="carIn28951:1" depart="57606.00" departLane="10425609#0_1" departPos="5.10" departSpeed="0.00" departDelay="0.20" arrival="57790.00" arrivalLane="-128361102#1_1" arrivalPos="274.68" arrivalSpeed="12.20" duration="184.00" routeLength="2113.04" waitingTime="0.00" waitingCount="0" stopTime="0.00" timeLoss="17.78" rerouteNo="1" devices="tripinfo_carIn28951:1 routing_carIn28951:1 emissions_carIn28951:1" vType="default_016" speedFactor="0.94" vaporized="">
        <emissions CO_abs="5201.111074" CO2_abs="423221.677724" HC_abs="33.523208" PMx_abs="6.620003" NOx_abs="166.221447" fuel_abs="181.925219" electricity_abs="0"/>
    </tripinfo>
    <tripinfo id="carIn107084:1" depart="57601.00" departLane="124812856#0_1" departPos="5.10" departSpeed="0.00" departDelay="0.70" arrival="57791.00" arrivalLane="-128361102#1_1" arrivalPos="274.68" arrivalSpeed="13.78" duration="190.00" routeLength="2250.49" waitingTime="4.00" waitingCount="1" stopTime="0.00" timeLoss="30.00" rerouteNo="1" devices="tripinfo_carIn107084:1 routing_carIn107084:1 emissions_carIn107084:1" vType="default_016" speedFactor="1.03" vaporized="">
        <emissions CO_abs="6074.299073" CO2_abs="474181.947981" HC_abs="38.713745" PMx_abs="8.002435" NOx_abs="189.671098" fuel_abs="203.830236" electricity_abs="0"/>
    </tripinfo>
    <tripinfo id="carIn118591:1" depart="57689.00" departLane="315358244_1" departPos="5.10" departSpeed="0.00" departDelay="0.20" arrival="57791.00" arrivalLane="386687235_1" arrivalPos="80.84" arrivalSpeed="12.63" duration="102.00" routeLength="1186.14" waitingTime="0.00" waitingCount="0" stopTime="0.00" timeLoss="8.33" rerouteNo="1" devices="tripinfo_carIn118591:1 routing_carIn118591:1 emissions_carIn118591:1" vType="default_016" speedFactor="0.92" vaporized="">
        <emissions CO_abs="2612.091234" CO2_abs="220413.906389" HC_abs="16.995505" PMx_abs="3.281099" NOx_abs="85.329349" fuel_abs="94.746868" electricity_abs="0"/>
    </tripinfo>
    <tripinfo id="carIn77943:1" depart="57608.00" departLane="124812856#0_1" departPos="5.10" departSpeed="0.00" departDelay="2.50" arrival="57793.00" arrivalLane="-128361102#1_1" arrivalPos="274.68" arrivalSpeed="15.52" duration="185.00" routeLength="2232.46" waitingTime="0.00" waitingCount="0" stopTime="0.00" timeLoss="44.55" rerouteNo="1" devices="tripinfo_carIn77943:1 routing_carIn77943:1 emissions_carIn77943:1" vType="default_016" speedFactor="1.16" vaporized="">
        <emissions CO_abs="7524.405823" CO2_abs="538640.263489" HC_abs="46.921126" PMx_abs="9.770952" NOx_abs="220.305196" fuel_abs="231.537514" electricity_abs="0"/>
    </tripinfo>
    <tripinfo id="carIn107282:1" depart="57749.00" departLane="-447569998#1_1" departPos="5.10" departSpeed="0.00" departDelay="0.00" arrival="57794.00" arrivalLane="315358242#0_1" arrivalPos="165.37" arrivalSpeed="14.48" duration="45.00" routeLength="448.50" waitingTime="0.00" waitingCount="0" stopTime="0.00" timeLoss="4.76" rerouteNo="1" devices="tripinfo_carIn107282:1 routing_carIn107282:1 emissions_carIn107282:1" vType="default_016" speedFactor="1.06" vaporized="">
        <emissions CO_abs="1732.013968" CO2_abs="112148.334454" HC_abs="10.462338" PMx_abs="1.812270" NOx_abs="44.633410" fuel_abs="48.208044" electricity_abs="0"/>
    </tripinfo>
    <tripinfo id="h11737c1:1" depart="57665.00" departLane="272042143_1" departPos="5.10" departSpeed="0.00" departDelay="1.50" arrival="57796.00" arrivalLane="-315358254#1_1" arrivalPos="137.16" arrivalSpeed="14.45" duration="131.00" routeLength="1596.88" waitingTime="0.00" waitingCount="0" stopTime="0.00" timeLoss="21.09" rerouteNo="1" devices="tripinfo_h11737c1:1 routing_h11737c1:1 emissions_h11737c1:1" vType="default_016" speedFactor="1.06" vaporized="">
        <emissions CO_abs="4818.167306" CO2_abs="378725.677223" HC_abs="30.784114" PMx_abs="6.413033" NOx_abs="151.466982" fuel_abs="162.797685" electricity_abs="0"/>
    </tripinfo>
    <tripinfo id="carIn129809:1" depart="57729.00" departLane="-447569998#1_1" departPos="5.10" departSpeed="0.00" departDelay="1.00" arrival="57797.00" arrivalLane="-315358244_1" arrivalPos="33.95" arrivalSpeed="14.17" duration="68.00" routeLength="706.49" waitingTime="0.00" waitingCount="0" stopTime="0.00" timeLoss="9.19" rerouteNo="1" devices="tripinfo_carIn129809:1 routing_carIn129809:1 emissions_carIn129809:1" vType="default_015" speedFactor="1.04" vaporized="">
        <emissions CO_abs="2340.763406" CO2_abs="152575.993320" HC_abs="14.178965" PMx_abs="2.423981" NOx_abs="60.256907" fuel_abs="65.586338" electricity_abs="0"/>
    </tripinfo>
    <tripinfo id="h5979c1:5" depart="57669.00" departLane="399835085#1_1" departPos="5.10" departSpeed="0.00" departDelay="0.00" arrival="57800.00" arrivalLane="-315358254#1_1" arrivalPos="137.16" arrivalSpeed="11.45" duration="131.00" routeLength="659.33" waitingTime="35.00" waitingCount="1" stopTime="0.00" timeLoss="49.34" rerouteNo="1" devices="tripinfo_h5979c1:5 routing_h5979c1:5 emissions_h5979c1:5" vType="default_016" speedFactor="0.90" vaporized="">
        <emissions CO_abs="9503.105201" CO2_abs="264968.022092" HC_abs="49.393207" PMx_abs="5.071625" NOx_abs="112.147409" fuel_abs="113.902333" electricity_abs="0"/>
    </tripinfo>
    <tripinfo id="carIn12365:1" depart="57713.00" departLane="315358244_1" departPos="5.10" departSpeed="0.00" departDelay="0.50" arrival="57800.00" arrivalLane="447569997#1_1" arrivalPos="180.93" arrivalSpeed="5.83" duration="87.00" routeLength="718.04" waitingTime="0.00" waitingCount="0" stopTime="0.00" timeLoss="10.30" rerouteNo="1" devices="tripinfo_carIn12365:1 routing_carIn12365:1 emissions_carIn12365:1" vType="default_016" speedFactor="0.81" vaporized="">
        <emissions CO_abs="3048.566404" CO2_abs="165760.393617" HC_abs="17.668054" PMx_abs="2.468870" NOx_abs="65.312375" fuel_abs="71.254379" electricity_abs="0"/>
    </tripinfo>
    <tripinfo id="carIn81046:1" depart="57611.00" departLane="124812856#0_1" departPos="5.10" departSpeed="0.00" departDelay="2.50" arrival="57806.00" arrivalLane="-128361102#1_1" arrivalPos="274.68" arrivalSpeed="15.06" duration="195.00" routeLength="2250.49" waitingTime="0.00" waitingCount="0" stopTime="0.00" timeLoss="45.18" rerouteNo="1" devices="tripinfo_carIn81046:1 routing_carIn81046:1 emissions_carIn81046:1" vType="default_016" speedFactor="1.10" vaporized="">
        <emissions CO_abs="7218.182792" CO2_abs="542193.442054" HC_abs="45.574608" PMx_abs="9.383621" NOx_abs="219.001585" fuel_abs="233.065244" electricity_abs="0"/>
    </tripinfo>
    <tripinfo id="carIn82278:1" depart="57702.00" departLane="-306240162#1_0" departPos="5.10" departSpeed="0.00" departDelay="0.70" arrival="57806.00" arrivalLane="399835085#1_1" arrivalPos="212.23" arrivalSpeed="7.48" duration="104.00" routeLength="1093.26" waitingTime="6.00" waitingCount="1" stopTime="0.00" timeLoss="22.27" rerouteNo="1" devices="tripinfo_carIn82278:1 routing_carIn82278:1 emissions_carIn82278:1" vType="default_016" speedFactor="0.95" vaporized="">
        <emissions CO_abs="4541.315547" CO2_abs="273488.957563" HC_abs="27.137136" PMx_abs="4.988286" NOx_abs="111.568789" fuel_abs="117.561381" electricity_abs="0"/>
    </tripinfo>
    <tripinfo id="carIn12858:1" depart="57661.00" departLane="128361109#1_1" departPos="5.10" departSpeed="0.00" departDelay="0.90" arrival="57808.00" arrivalLane="399835085#1_1" arrivalPos="212.23" arrivalSpeed="9.75" duration="147.00" routeLength="1738.12" waitingTime="16.00" waitingCount="2" stopTime="0.00" timeLoss="51.32" rerouteNo="1" devices="tripinfo_carIn12858:1 routing_carIn12858:1 emissions_carIn12858:1" vType="default_016" speedFactor="1.20" vaporized="">
        <emissions CO_abs="10519.131440" CO2_abs="599587.388936" HC_abs="62.179659" PMx_abs="12.254302" NOx_abs="250.898466" fuel_abs="257.736030" electricity_abs="0"/>
    </tripinfo>
    <tripinfo id="carIn77438:1" depart="57614.00" departLane="124812856#0_1" departPos="5.10" departSpeed="0.00" departDelay="1.10" arrival="57810.00" arrivalLane="-128361102#1_1" arrivalPos="274.68" arrivalSpeed="13.83" duration="196.00" routeLength="2250.49" waitingTime="0.00" waitingCount="0" stopTime="0.00" timeLoss="39.16" rerouteNo="1" devices="tripinfo_carIn77438:1 routing_carIn77438:1 emissions_carIn77438:1" vType="default_016" speedFactor="1.05" vaporized="">
        <emissions CO_abs="7686.785408" CO2_abs="554466.915888" HC_abs="48.076372" PMx_abs="9.862700" NOx_abs="226.279091" fuel_abs="238.340874" electricity_abs="0"/>
    </tripinfo>
    <tripinfo id="h19804c1:3" depart="57617.00" departLane="124812856#0_1" departPos="5.10" departSpeed="0.00" departDelay="1.50" arrival="57812.00" arrivalLane="-128361102#1_1" arrivalPos="274.68" arrivalSpeed="14.20" duration="195.00" routeLength="2250.49" waitingTime="0.00" waitingCount="0" stopTime="0.00" timeLoss="36.14" rerouteNo="1" devices="tripinfo_h19804c1:3 routing_h19804c1:3 emissions_h19804c1:3" vType="default_016" speedFactor="1.03" vaporized="">
        <emissions CO_abs="7128.544834" CO2_abs="527134.161151" HC_abs="44.823745" PMx_abs="9.144039" NOx_abs="213.462075" fuel_abs="226.591941" electricity_abs="0"/>
    </tripinfo>
    <tripinfo id="carIn82220:1" depart="57619.00" departLane="-306240162#1_0" departPos="5.10" departSpeed="0.00" departDelay="3.50" arrival="57814.00" arrivalLane="386687235_2" arrivalPos="80.84" arrivalSpeed="11.32" duration="195.00" routeLength="2257.41" waitingTime="0.00" waitingCount="0" stopTime="0.00" timeLoss="25.74" rerouteNo="1" devices="tripinfo_carIn82220:1 routing_carIn82220:1 emissions_carIn82220:1" vType="default_016" speedFactor="0.88" vaporized="">
        <emissions CO_abs="6273.642646" CO2_abs="480363.524715" HC_abs="39.765639" PMx_abs="7.873728" NOx_abs="190.379168" fuel_abs="206.487922" electricity_abs="0"/>
    </tripinfo>
    <tripinfo id="carIn48184:1" depart="57613.00" departLane="-306240162#1_0" departPos="5.10" departSpeed="0.00" departDelay="0.70" arrival="57815.00" arrivalLane="386687235_1" arrivalPos="80.84" arrivalSpeed="11.06" duration="202.00" routeLength="2257.41" waitingTime="0.00" waitingCount="0" stopTime="0.00" timeLoss="22.68" rerouteNo="1" devices="tripinfo_carIn48184:1 routing_carIn48184:1 emissions_carIn48184:1" vType="default_016" speedFactor="0.83" vaporized="">
        <emissions CO_abs="6199.835213" CO2_abs="470751.982898" HC_abs="39.111274" PMx_abs="7.570363" NOx_abs="185.823456" fuel_abs="202.356562" electricity_abs="0"/>
    </tripinfo>
    <tripinfo id="carIn50326:1" depart="57651.00" departLane="128361102#0_1" departPos="5.10" departSpeed="0.00" departDelay="0.30" arrival="57815.00" arrivalLane="18809673#0_1" arrivalPos="473.56" arrivalSpeed="12.22" duration="164.00" routeLength="1591.07" waitingTime="4.00" waitingCount="1" stopTime="0.00" timeLoss="23.79" rerouteNo="1" devices="tripinfo_carIn50326:1 routing_carIn50326:1 emissions_carIn50326:1" vType="default_016" speedFactor="0.93" vaporized="">
        <emissions CO_abs="5363.443913" CO2_abs="345605.365085" HC_abs="32.447598" PMx_abs="5.588423" NOx_abs="138.018768" fuel_abs="148.561789" electricity_abs="0"/>
    </tripinfo>
    <tripinfo id="carIn462:1" depart="57622.00" departLane="-306240162#1_0" departPos="5.10" departSpeed="0.00" departDelay="4.80" arrival="57816.00" arrivalLane="386687235_2" arrivalPos="80.84" arrivalSpeed="13.75" duration="194.00" routeLength="2257.41" waitingTime="1.00" waitingCount="1" stopTime="0.00" timeLoss="48.52" rerouteNo="1" devices="tripinfo_carIn462:1 routing_carIn462:1 emissions_carIn462:1" vType="default_016" speedFactor="1.03" vaporized="">
        <emissions CO_abs="8156.349610" CO2_abs="570045.046539" HC_abs="50.627172" PMx_abs="10.359472" NOx_abs="233.065156" fuel_abs="245.037210" electricity_abs="0"/>
    </tripinfo>
    <tripinfo id="carIn116184:1" depart="57627.00" departLane="-306240162#1_0" departPos="5.10" departSpeed="0.00" departDelay="0.10" arrival="57816.00" arrivalLane="386687235_1" arrivalPos="80.84" arrivalSpeed="13.99" duration="189.00" routeLength="2257.41" waitingTime="0.00" waitingCount="0" stopTime="0.00" timeLoss="43.51" rerouteNo="1" devices="tripinfo_carIn116184:1 routing_carIn116184:1 emissions_carIn116184:1" vType="default_016" speedFactor="1.02" vaporized="">
        <emissions CO_abs="8312.679788" CO2_abs="557704.119373" HC_abs="51.044936" PMx_abs="10.375171" NOx_abs="229.452084" fuel_abs="239.732313" electricity_abs="0"/>
    </tripinfo>
    <tripinfo id="h16072c2:3" depart="57663.00" departLane="315358254#0_1" departPos="5.10" departSpeed="0.00" departDelay="2.50" arrival="57817.00" arrivalLane="386687235_2" arrivalPos="80.84" arrivalSpeed="14.79" duration="154.00" routeLength="1611.92" waitingTime="6.00" waitingCount="1" stopTime="0.00" timeLoss="50.39" rerouteNo="1" devices="tripinfo_h16072c2:3 routing_h16072c2:3 emissions_h16072c2:3" vType="default_016" speedFactor="1.13" vaporized="">
        <emissions CO_abs="7131.575274" CO2_abs="461773.472110" HC_abs="43.348294" PMx_abs="8.253033" NOx_abs="188.588129" fuel_abs="198.496627" electricity_abs="0"/>
    </tripinfo>
    <tripinfo id="carIn126288:1" depart="57674.00" departLane="272042143_1" departPos="5.10" departSpeed="0.00" departDelay="0.00" arrival="57817.00" arrivalLane="-315358254#1_1" arrivalPos="137.16" arrivalSpeed="13.10" duration="143.00" routeLength="1596.88" waitingTime="5.00" waitingCount="1" stopTime="0.00" timeLoss="20.80" rerouteNo="1" devices="tripinfo_carIn126288:1 routing_carIn126288:1 emissions_carIn126288:1" vType="default_016" speedFactor="0.95" vaporized="">
        <emissions CO_abs="4368.788833" CO2_abs="335814.568282" HC_abs="27.743307" PMx_abs="5.493722" NOx_abs="133.582321" fuel_abs="144.352400" electricity_abs="0"/>
    </tripinfo>
    <tripinfo id="carIn31257:1" depart="57630.00" departLane="-306240162#1_0" departPos="5.10" departSpeed="0.00" departDelay="1.60" arrival="57818.00" arrivalLane="386687235_1" arrivalPos="80.84" arrivalSpeed="13.77" duration="188.00" routeLength="2257.41" waitingTime="1.00" waitingCount="1" stopTime="0.00" timeLoss="41.67" rerouteNo="1" devices="tripinfo_carIn31257:1 routing_carIn31257:1 emissions_carIn31257:1" vType="default_016" speedFactor="1.02" vaporized="">
        <emissions CO_abs="8478.185454" CO2_abs="584500.976191" HC_abs="52.455810" PMx_abs="10.809821" NOx_abs="239.590219" fuel_abs="251.251046" electricity_abs="0"/>
    </tripinfo>
    <tripinfo id="carIn12152:1" depart="57647.00" departLane="24599188#0.94_1" departPos="5.10" departSpeed="0.00" departDelay="0.50" arrival="57819.00" arrivalLane="-315358254#1_1" arrivalPos="137.16" arrivalSpeed="15.65" duration="172.00" routeLength="2034.31" waitingTime="5.00" waitingCount="2" stopTime="0.00" timeLoss="32.04" rerouteNo="1" devices="tripinfo_carIn12152:1 routing_carIn12152:1 emissions_carIn12152:1" vType="default_016" speedFactor="1.14" vaporized="">
        <emissions CO_abs="6306.871675" CO2_abs="466768.634083" HC_abs="39.513188" PMx_abs="7.939615" NOx_abs="186.473236" fuel_abs="200.643807" electricity_abs="0"/>
    </tripinfo>
    <tripinfo id="carIn86816:1" depart="57617.00" departLane="128361102#0_1" departPos="5.10" departSpeed="0.00" departDelay="0.80" arrival="57821.00" arrivalLane="201956811#0_1" arrivalPos="40.40" arrivalSpeed="10.61" duration="204.00" routeLength="2067.33" waitingTime="0.00" waitingCount="0" stopTime="0.00" timeLoss="18.67" rerouteNo="1" devices="tripinfo_carIn86816:1 routing_carIn86816:1 emissions_carIn86816:1" vType="default_016" speedFactor="0.82" vaporized="">
        <emissions CO_abs="6084.503181" CO2_abs="428313.342395" HC_abs="37.583427" PMx_abs="6.492743" NOx_abs="168.362433" fuel_abs="184.114777" electricity_abs="0"/>
    </tripinfo>
    <tripinfo id="h17549c1:1" depart="57680.00" departLane="-447569998#1_1" departPos="5.10" departSpeed="0.00" departDelay="0.00" arrival="57821.00" arrivalLane="-315358254#1_1" arrivalPos="137.16" arrivalSpeed="15.23" duration="141.00" routeLength="1746.60" waitingTime="0.00" waitingCount="0" stopTime="0.00" timeLoss="18.79" rerouteNo="1" devices="tripinfo_h17549c1:1 routing_h17549c1:1 emissions_h17549c1:1" vType="default_016" speedFactor="1.13" vaporized="">
        <emissions CO_abs="4830.401583" CO2_abs="380616.444897" HC_abs="30.763117" PMx_abs="6.360078" NOx_abs="151.134526" fuel_abs="163.610599" electricity_abs="0"/>
    </tripinfo>