<?xml version="1.0" encoding="UTF-8"?>

<!-- generated on 2021-10-26 11:48:50 by Eclipse SUMO sumo Version 1.10.0
<configuration xmlns:xsi="http://www.w3.org/2001/XMLSchema-instance" xsi:noNamespaceSchemaLocation="http://sumo.dlr.de/xsd/sumoConfiguration.xsd">

    <input>
        <net-file value="/Users/behradkoohy/sumo-scratchpad/RESCO/environments/ingolstadt21/ingolstadt21.net.xml"/>
        <route-files value="/Users/behradkoohy/sumo-scratchpad/RESCO/environments/ingolstadt21/ingolstadt21.rou.xml"/>
    </input>

    <output>
        <tripinfo-output value="/Users/behradkoohy/sumo-scratchpad/RESCO/logs/MAXWAVE-tr0-ingolstadt21-21-wave-wait/tripinfo_39.xml"/>
        <tripinfo-output.write-unfinished value="true"/>
    </output>

    <time>
        <begin value="57600"/>
        <end value="61200"/>
    </time>

    <processing>
        <time-to-teleport value="-1"/>
    </processing>

    <report>
        <no-warnings value="true"/>
        <no-step-log value="true"/>
    </report>

    <emissions>
        <device.emissions.probability value="1"/>
    </emissions>

    <traci_server>
        <remote-port value="57570"/>
    </traci_server>

    <random_number>
        <random value="true"/>
    </random_number>

</configuration>
-->

<tripinfos xmlns:xsi="http://www.w3.org/2001/XMLSchema-instance" xsi:noNamespaceSchemaLocation="http://sumo.dlr.de/xsd/tripinfo_file.xsd">
    <tripinfo id="h15454c2:3" depart="57612.00" departLane="24608844_1" departPos="5.10" departSpeed="0.00" departDelay="0.50" arrival="57647.00" arrivalLane="32978638#0_1" arrivalPos="49.29" arrivalSpeed="16.89" duration="35.00" routeLength="354.79" waitingTime="0.00" waitingCount="0" stopTime="0.00" timeLoss="7.25" rerouteNo="1" devices="tripinfo_h15454c2:3 routing_h15454c2:3 emissions_h15454c2:3" vType="default_016" speedFactor="1.23" vaporized="">
        <emissions CO_abs="2096.773950" CO2_abs="129820.707516" HC_abs="12.558276" PMx_abs="2.345775" NOx_abs="53.434123" fuel_abs="55.804364" electricity_abs="0"/>
    </tripinfo>
    <tripinfo id="carIn60260:1" depart="57606.00" departLane="315358254#0_1" departPos="5.10" departSpeed="0.00" departDelay="0.90" arrival="57658.00" arrivalLane="399835085#1_1" arrivalPos="212.23" arrivalSpeed="8.14" duration="52.00" routeLength="430.98" waitingTime="0.00" waitingCount="0" stopTime="0.00" timeLoss="6.23" rerouteNo="1" devices="tripinfo_carIn60260:1 routing_carIn60260:1 emissions_carIn60260:1" vType="default_016" speedFactor="1.00" vaporized="">
        <emissions CO_abs="2309.284644" CO2_abs="122396.892662" HC_abs="13.326134" PMx_abs="1.916467" NOx_abs="48.917288" fuel_abs="52.613881" electricity_abs="0"/>
    </tripinfo>
    <tripinfo id="carIn53971:1" depart="57640.00" departLane="272042143_1" departPos="5.10" departSpeed="0.00" departDelay="0.80" arrival="57695.00" arrivalLane="24634414#1_1" arrivalPos="162.19" arrivalSpeed="6.99" duration="55.00" routeLength="493.04" waitingTime="0.00" waitingCount="0" stopTime="0.00" timeLoss="9.08" rerouteNo="1" devices="tripinfo_carIn53971:1 routing_carIn53971:1 emissions_carIn53971:1" vType="default_016" speedFactor="0.99" vaporized="">
        <emissions CO_abs="2434.447433" CO2_abs="140523.877725" HC_abs="14.340500" PMx_abs="2.292318" NOx_abs="56.507110" fuel_abs="60.405699" electricity_abs="0"/>
    </tripinfo>
    <tripinfo id="S5R_frequency1.2" depart="57615.00" departLane="315358250#0_1" departPos="12.10" departSpeed="0.00" departDelay="3.40" arrival="57709.00" arrivalLane="386687235_1" arrivalPos="80.84" arrivalSpeed="13.70" duration="94.00" routeLength="1115.62" waitingTime="0.00" waitingCount="0" stopTime="0.00" timeLoss="12.08" rerouteNo="1" devices="tripinfo_S5R_frequency1.2 routing_S5R_frequency1.2 emissions_S5R_frequency1.2" vType="bus" speedFactor="1.00" vaporized="">
        <emissions CO_abs="1932.167870" CO2_abs="1212032.474335" HC_abs="417.100441" PMx_abs="207.792516" NOx_abs="9388.520258" fuel_abs="516.929217" electricity_abs="0"/>
    </tripinfo>
    <tripinfo id="h12244c1:3" depart="57612.00" departLane="315358244_1" departPos="5.10" departSpeed="0.00" departDelay="0.40" arrival="57714.00" arrivalLane="386687235_1" arrivalPos="80.84" arrivalSpeed="11.84" duration="102.00" routeLength="1186.14" waitingTime="0.00" waitingCount="0" stopTime="0.00" timeLoss="9.25" rerouteNo="1" devices="tripinfo_h12244c1:3 routing_h12244c1:3 emissions_h12244c1:3" vType="default_016" speedFactor="0.94" vaporized="">
        <emissions CO_abs="2460.910604" CO2_abs="219280.428817" HC_abs="16.265717" PMx_abs="3.147900" NOx_abs="83.935319" fuel_abs="94.259713" electricity_abs="0"/>
    </tripinfo>
    <tripinfo id="carIn80064:1" depart="57603.00" departLane="128361109#1_1" departPos="5.10" departSpeed="0.00" departDelay="0.40" arrival="57716.00" arrivalLane="-315358254#1_1" arrivalPos="137.16" arrivalSpeed="13.88" duration="113.00" routeLength="1587.97" waitingTime="0.00" waitingCount="0" stopTime="0.00" timeLoss="23.45" rerouteNo="1" devices="tripinfo_carIn80064:1 routing_carIn80064:1 emissions_carIn80064:1" vType="default_016" speedFactor="1.00" vaporized="">
        <emissions CO_abs="6109.688768" CO2_abs="444470.197918" HC_abs="38.469914" PMx_abs="8.502595" NOx_abs="182.490828" fuel_abs="191.057469" electricity_abs="0"/>
    </tripinfo>
    <tripinfo id="h3688c1:1" depart="57625.00" departLane="201201950#1_1" departPos="5.10" departSpeed="0.00" departDelay="0.00" arrival="57719.00" arrivalLane="32978638#0_1" arrivalPos="49.29" arrivalSpeed="14.97" duration="94.00" routeLength="1089.75" waitingTime="6.00" waitingCount="1" stopTime="0.00" timeLoss="20.52" rerouteNo="1" devices="tripinfo_h3688c1:1 routing_h3688c1:1 emissions_h3688c1:1" vType="default_016" speedFactor="1.10" vaporized="">
        <emissions CO_abs="3881.763340" CO2_abs="287969.808175" HC_abs="24.493634" PMx_abs="5.156616" NOx_abs="116.953818" fuel_abs="123.785457" electricity_abs="0"/>
    </tripinfo>
    <tripinfo id="h7800c1:5" depart="57696.00" departLane="-447569998#1_1" departPos="5.10" departSpeed="0.00" departDelay="0.00" arrival="57720.00" arrivalLane="-447569998#1_1" arrivalPos="180.76" arrivalSpeed="7.35" duration="24.00" routeLength="175.66" waitingTime="0.00" waitingCount="0" stopTime="0.00" timeLoss="3.22" rerouteNo="1" devices="tripinfo_h7800c1:5 routing_h7800c1:5 emissions_h7800c1:5" vType="default_016" speedFactor="1.02" vaporized="">
        <emissions CO_abs="1151.284328" CO2_abs="51728.837290" HC_abs="6.427591" PMx_abs="0.834163" NOx_abs="20.964421" fuel_abs="22.236406" electricity_abs="0"/>
    </tripinfo>
    <tripinfo id="carIn22761:1" depart="57616.00" departLane="-306240162#1_0" departPos="5.10" departSpeed="0.00" departDelay="2.10" arrival="57724.00" arrivalLane="399835085#1_1" arrivalPos="212.23" arrivalSpeed="7.94" duration="108.00" routeLength="1093.26" waitingTime="12.00" waitingCount="1" stopTime="0.00" timeLoss="30.86" rerouteNo="1" devices="tripinfo_carIn22761:1 routing_carIn22761:1 emissions_carIn22761:1" vType="default_016" speedFactor="1.01" vaporized="">
        <emissions CO_abs="5954.887841" CO2_abs="313276.454838" HC_abs="34.488966" PMx_abs="5.893322" NOx_abs="129.014928" fuel_abs="134.664708" electricity_abs="0"/>
    </tripinfo>
    <tripinfo id="h9563c2:5" depart="57631.00" departLane="315358244_1" departPos="5.10" departSpeed="0.00" departDelay="0.70" arrival="57726.00" arrivalLane="386687235_1" arrivalPos="80.84" arrivalSpeed="13.35" duration="95.00" routeLength="1186.14" waitingTime="0.00" waitingCount="0" stopTime="0.00" timeLoss="8.73" rerouteNo="1" devices="tripinfo_h9563c2:5 routing_h9563c2:5 emissions_h9563c2:5" vType="default_016" speedFactor="1.00" vaporized="">
        <emissions CO_abs="2543.412764" CO2_abs="231322.192187" HC_abs="16.951685" PMx_abs="3.502941" NOx_abs="89.431209" fuel_abs="99.435682" electricity_abs="0"/>
    </tripinfo>
    <tripinfo id="h3568c1:3" depart="57656.00" departLane="266565295#5_1" departPos="5.10" departSpeed="0.00" departDelay="0.80" arrival="57729.00" arrivalLane="-24634415_1" arrivalPos="62.03" arrivalSpeed="13.29" duration="73.00" routeLength="807.40" waitingTime="0.00" waitingCount="0" stopTime="0.00" timeLoss="11.02" rerouteNo="1" devices="tripinfo_h3568c1:3 routing_h3568c1:3 emissions_h3568c1:3" vType="default_016" speedFactor="1.04" vaporized="">
        <emissions CO_abs="2995.200287" CO2_abs="205442.738622" HC_abs="18.378319" PMx_abs="3.542761" NOx_abs="83.047796" fuel_abs="88.311062" electricity_abs="0"/>
    </tripinfo>
    <tripinfo id="h4538c1:1" depart="57701.00" departLane="-10427692#1_1" departPos="5.10" departSpeed="0.00" departDelay="0.00" arrival="57746.00" arrivalLane="-128361102#1_1" arrivalPos="274.68" arrivalSpeed="13.56" duration="45.00" routeLength="440.74" waitingTime="3.00" waitingCount="1" stopTime="0.00" timeLoss="12.60" rerouteNo="1" devices="tripinfo_h4538c1:1 routing_h4538c1:1 emissions_h4538c1:1" vType="default_016" speedFactor="0.98" vaporized="">
        <emissions CO_abs="1822.327613" CO2_abs="120942.558205" HC_abs="11.117845" PMx_abs="1.987273" NOx_abs="48.255254" fuel_abs="51.988252" electricity_abs="0"/>
    </tripinfo>
    <tripinfo id="h317c2:1" depart="57707.00" departLane="-32978638#0_1" departPos="5.10" departSpeed="0.00" departDelay="0.10" arrival="57746.00" arrivalLane="-266565295#5_1" arrivalPos="172.76" arrivalSpeed="12.71" duration="39.00" routeLength="370.53" waitingTime="2.00" waitingCount="1" stopTime="0.00" timeLoss="9.73" rerouteNo="1" devices="tripinfo_h317c2:1 routing_h317c2:1 emissions_h317c2:1" vType="default_016" speedFactor="0.95" vaporized="">
        <emissions CO_abs="2066.711253" CO2_abs="119672.088756" HC_abs="12.233640" PMx_abs="2.203457" NOx_abs="49.614989" fuel_abs="51.441958" electricity_abs="0"/>
    </tripinfo>
    <tripinfo id="h7181c1:1" depart="57660.00" departLane="315358254#0_1" departPos="5.10" departSpeed="0.00" departDelay="0.10" arrival="57751.00" arrivalLane="306240162#0_0" arrivalPos="220.43" arrivalSpeed="16.37" duration="91.00" routeLength="932.35" waitingTime="20.00" waitingCount="2" stopTime="0.00" timeLoss="39.09" rerouteNo="1" devices="tripinfo_h7181c1:1 routing_h7181c1:1 emissions_h7181c1:1" vType="default_016" speedFactor="0.99" vaporized="">
        <emissions CO_abs="6949.147679" CO2_abs="336161.114326" HC_abs="39.692596" PMx_abs="6.823382" NOx_abs="141.289959" fuel_abs="144.501650" electricity_abs="0"/>
    </tripinfo>
    <tripinfo id="carIn28951:1" depart="57606.00" departLane="10425609#0_1" departPos="5.10" departSpeed="0.00" departDelay="0.20" arrival="57759.00" arrivalLane="-128361102#1_1" arrivalPos="274.68" arrivalSpeed="15.81" duration="153.00" routeLength="2095.01" waitingTime="0.00" waitingCount="0" stopTime="0.00" timeLoss="17.28" rerouteNo="1" devices="tripinfo_carIn28951:1 routing_carIn28951:1 emissions_carIn28951:1" vType="default_016" speedFactor="1.15" vaporized="">
        <emissions CO_abs="5155.656200" CO2_abs="450803.138595" HC_abs="33.938436" PMx_abs="7.751107" NOx_abs="179.442013" fuel_abs="193.780117" electricity_abs="0"/>
    </tripinfo>
    <tripinfo id="carIn30817:1" depart="57681.00" departLane="315358244_1" departPos="5.10" departSpeed="0.00" departDelay="0.20" arrival="57762.00" arrivalLane="447569997#1_1" arrivalPos="180.93" arrivalSpeed="5.91" duration="81.00" routeLength="718.04" waitingTime="0.00" waitingCount="0" stopTime="0.00" timeLoss="7.83" rerouteNo="1" devices="tripinfo_carIn30817:1 routing_carIn30817:1 emissions_carIn30817:1" vType="default_016" speedFactor="0.84" vaporized="">
        <emissions CO_abs="2706.786494" CO2_abs="156746.040431" HC_abs="15.913640" PMx_abs="2.336122" NOx_abs="61.630245" fuel_abs="67.379298" electricity_abs="0"/>
    </tripinfo>
    <tripinfo id="h3154c1:1" depart="57658.00" departLane="24634507_1" departPos="5.10" departSpeed="0.00" departDelay="0.00" arrival="57769.00" arrivalLane="-266565295#5_1" arrivalPos="172.76" arrivalSpeed="13.97" duration="111.00" routeLength="1206.22" waitingTime="11.00" waitingCount="1" stopTime="0.00" timeLoss="24.82" rerouteNo="1" devices="tripinfo_h3154c1:1 routing_h3154c1:1 emissions_h3154c1:1" vType="default_016" speedFactor="1.04" vaporized="">
        <emissions CO_abs="4957.566649" CO2_abs="304556.492042" HC_abs="29.664197" PMx_abs="5.329585" NOx_abs="123.149714" fuel_abs="130.916216" electricity_abs="0"/>
    </tripinfo>
    <tripinfo id="h330c1:1" depart="57736.00" departLane="-32978638#0_1" departPos="5.10" departSpeed="0.00" departDelay="0.20" arrival="57774.00" arrivalLane="-266565295#5_1" arrivalPos="172.76" arrivalSpeed="14.83" duration="38.00" routeLength="370.53" waitingTime="2.00" waitingCount="1" stopTime="0.00" timeLoss="12.03" rerouteNo="1" devices="tripinfo_h330c1:1 routing_h330c1:1 emissions_h330c1:1" vType="default_016" speedFactor="1.08" vaporized="">
        <emissions CO_abs="2118.513324" CO2_abs="127305.139903" HC_abs="12.650989" PMx_abs="2.381894" NOx_abs="52.793955" fuel_abs="54.722978" electricity_abs="0"/>
    </tripinfo>
    <tripinfo id="carIn27009:1" depart="57673.00" departLane="-447569998#1_1" departPos="5.10" departSpeed="0.00" departDelay="0.50" arrival="57775.00" arrivalLane="-26677539_1" arrivalPos="152.75" arrivalSpeed="9.33" duration="102.00" routeLength="699.63" waitingTime="15.00" waitingCount="1" stopTime="0.00" timeLoss="29.02" rerouteNo="1" devices="tripinfo_carIn27009:1 routing_carIn27009:1 emissions_carIn27009:1" vType="default_015" speedFactor="1.15" vaporized="">
        <emissions CO_abs="5708.882095" CO2_abs="238705.637209" HC_abs="31.514606" PMx_abs="4.138372" NOx_abs="98.192113" fuel_abs="102.611092" electricity_abs="0"/>
    </tripinfo>
    <tripinfo id="h645c1:1" depart="57622.00" departLane="266565295#5_1" departPos="5.10" departSpeed="0.00" departDelay="0.40" arrival="57787.00" arrivalLane="-315358244_1" arrivalPos="33.95" arrivalSpeed="13.12" duration="165.00" routeLength="1910.83" waitingTime="8.00" waitingCount="1" stopTime="0.00" timeLoss="25.61" rerouteNo="1" devices="tripinfo_h645c1:1 routing_h645c1:1 emissions_h645c1:1" vType="default_016" speedFactor="1.00" vaporized="">
        <emissions CO_abs="4721.960656" CO2_abs="377923.121116" HC_abs="30.282853" PMx_abs="5.952046" NOx_abs="147.770007" fuel_abs="162.453368" electricity_abs="0"/>
    </tripinfo>
    <tripinfo id="h3326c1:2" depart="57656.00" departLane="22716069#0_1" departPos="5.10" departSpeed="0.00" departDelay="0.00" arrival="57789.00" arrivalLane="24634517#13_1" arrivalPos="111.62" arrivalSpeed="11.32" duration="133.00" routeLength="1312.81" waitingTime="0.00" waitingCount="0" stopTime="0.00" timeLoss="14.37" rerouteNo="1" devices="tripinfo_h3326c1:2 routing_h3326c1:2 emissions_h3326c1:2" vType="default_016" speedFactor="0.82" vaporized="">
        <emissions CO_abs="4291.909568" CO2_abs="288466.294958" HC_abs="26.225196" PMx_abs="4.571839" NOx_abs="114.875871" fuel_abs="123.999965" electricity_abs="0"/>
    </tripinfo>
    <tripinfo id="carIn107282:1" depart="57749.00" departLane="-447569998#1_1" departPos="5.10" departSpeed="0.00" departDelay="0.00" arrival="57793.00" arrivalLane="315358242#0_1" arrivalPos="165.37" arrivalSpeed="15.08" duration="44.00" routeLength="448.50" waitingTime="0.00" waitingCount="0" stopTime="0.00" timeLoss="7.21" rerouteNo="1" devices="tripinfo_carIn107282:1 routing_carIn107282:1 emissions_carIn107282:1" vType="default_016" speedFactor="1.14" vaporized="">
        <emissions CO_abs="2061.276209" CO2_abs="121822.928833" HC_abs="12.249792" PMx_abs="2.176826" NOx_abs="49.970110" fuel_abs="52.366589" electricity_abs="0"/>
    </tripinfo>
    <tripinfo id="carIn12365:1" depart="57713.00" departLane="315358244_1" departPos="5.10" departSpeed="0.00" departDelay="0.50" arrival="57795.00" arrivalLane="447569997#1_1" arrivalPos="180.93" arrivalSpeed="6.67" duration="82.00" routeLength="718.04" waitingTime="0.00" waitingCount="0" stopTime="0.00" timeLoss="8.25" rerouteNo="1" devices="tripinfo_carIn12365:1 routing_carIn12365:1 emissions_carIn12365:1" vType="default_016" speedFactor="0.84" vaporized="">
        <emissions CO_abs="2666.999595" CO2_abs="150543.119393" HC_abs="15.593594" PMx_abs="2.271397" NOx_abs="59.381464" fuel_abs="64.712906" electricity_abs="0"/>
    </tripinfo>
    <tripinfo id="carIn107084:1" depart="57601.00" departLane="124812856#0_1" departPos="5.10" departSpeed="0.00" departDelay="0.70" arrival="57796.00" arrivalLane="-128361102#1_1" arrivalPos="274.68" arrivalSpeed="12.40" duration="195.00" routeLength="2250.49" waitingTime="4.00" waitingCount="1" stopTime="0.00" timeLoss="27.08" rerouteNo="1" devices="tripinfo_carIn107084:1 routing_carIn107084:1 emissions_carIn107084:1" vType="default_016" speedFactor="0.98" vaporized="">
        <emissions CO_abs="5820.529916" CO2_abs="465110.687133" HC_abs="37.350479" PMx_abs="7.522143" NOx_abs="184.046527" fuel_abs="199.931277" electricity_abs="0"/>
    </tripinfo>
    <tripinfo id="h11737c1:1" depart="57665.00" departLane="272042143_1" departPos="5.10" departSpeed="0.00" departDelay="1.50" arrival="57797.00" arrivalLane="-315358254#1_1" arrivalPos="137.16" arrivalSpeed="13.67" duration="132.00" routeLength="1596.88" waitingTime="3.00" waitingCount="1" stopTime="0.00" timeLoss="22.86" rerouteNo="1" devices="tripinfo_h11737c1:1 routing_h11737c1:1 emissions_h11737c1:1" vType="default_016" speedFactor="1.07" vaporized="">
        <emissions CO_abs="4273.320034" CO2_abs="341349.091739" HC_abs="27.446737" PMx_abs="5.791938" NOx_abs="136.245853" fuel_abs="146.731078" electricity_abs="0"/>
    </tripinfo>
    <tripinfo id="carIn118591:1" depart="57689.00" departLane="315358244_1" departPos="5.10" departSpeed="0.00" departDelay="0.20" arrival="57797.00" arrivalLane="386687235_1" arrivalPos="80.84" arrivalSpeed="12.10" duration="108.00" routeLength="1186.14" waitingTime="0.00" waitingCount="0" stopTime="0.00" timeLoss="9.34" rerouteNo="1" devices="tripinfo_carIn118591:1 routing_carIn118591:1 emissions_carIn118591:1" vType="default_016" speedFactor="0.87" vaporized="">
        <emissions CO_abs="2793.182619" CO2_abs="222160.233731" HC_abs="17.837991" PMx_abs="3.246198" NOx_abs="86.000806" fuel_abs="95.497732" electricity_abs="0"/>
    </tripinfo>
    <tripinfo id="carIn126288:1" depart="57674.00" departLane="272042143_1" departPos="5.10" departSpeed="0.00" departDelay="0.00" arrival="57799.00" arrivalLane="-315358254#1_1" arrivalPos="137.16" arrivalSpeed="13.91" duration="125.00" routeLength="1596.88" waitingTime="0.00" waitingCount="0" stopTime="0.00" timeLoss="13.82" rerouteNo="1" devices="tripinfo_carIn126288:1 routing_carIn126288:1 emissions_carIn126288:1" vType="default_016" speedFactor="1.05" vaporized="">
        <emissions CO_abs="3692.465019" CO2_abs="314960.535338" HC_abs="24.095062" PMx_abs="5.187501" NOx_abs="124.571670" fuel_abs="135.387815" electricity_abs="0"/>
    </tripinfo>
    <tripinfo id="h5979c1:5" depart="57669.00" departLane="399835085#1_1" departPos="5.10" departSpeed="0.00" departDelay="0.00" arrival="57802.00" arrivalLane="-315358254#1_1" arrivalPos="137.16" arrivalSpeed="13.52" duration="133.00" routeLength="659.33" waitingTime="49.00" waitingCount="2" stopTime="0.00" timeLoss="63.89" rerouteNo="1" devices="tripinfo_h5979c1:5 routing_h5979c1:5 emissions_h5979c1:5" vType="default_016" speedFactor="1.06" vaporized="">
        <emissions CO_abs="10483.500463" CO2_abs="286661.207067" HC_abs="54.421910" PMx_abs="5.816667" NOx_abs="123.068832" fuel_abs="123.227335" electricity_abs="0"/>
    </tripinfo>
    <tripinfo id="carIn82278:1" depart="57702.00" departLane="-306240162#1_0" departPos="5.10" departSpeed="0.00" departDelay="0.70" arrival="57802.00" arrivalLane="399835085#1_1" arrivalPos="212.23" arrivalSpeed="8.65" duration="100.00" routeLength="1093.26" waitingTime="8.00" waitingCount="1" stopTime="0.00" timeLoss="25.31" rerouteNo="1" devices="tripinfo_carIn82278:1 routing_carIn82278:1 emissions_carIn82278:1" vType="default_016" speedFactor="1.04" vaporized="">
        <emissions CO_abs="4724.271047" CO2_abs="289527.412146" HC_abs="28.395362" PMx_abs="5.437749" NOx_abs="118.375696" fuel_abs="124.455405" electricity_abs="0"/>
    </tripinfo>
    <tripinfo id="carIn77943:1" depart="57608.00" departLane="124812856#0_1" departPos="5.10" departSpeed="0.00" departDelay="2.50" arrival="57803.00" arrivalLane="-128361102#1_1" arrivalPos="274.68" arrivalSpeed="13.30" duration="195.00" routeLength="2250.49" waitingTime="0.00" waitingCount="0" stopTime="0.00" timeLoss="24.61" rerouteNo="1" devices="tripinfo_carIn77943:1 routing_carIn77943:1 emissions_carIn77943:1" vType="default_016" speedFactor="0.96" vaporized="">
        <emissions CO_abs="5821.893913" CO2_abs="477073.410865" HC_abs="37.569085" PMx_abs="7.337125" NOx_abs="186.142319" fuel_abs="205.074013" electricity_abs="0"/>
    </tripinfo>
    <tripinfo id="carIn81046:1" depart="57611.00" departLane="124812856#0_1" departPos="5.10" departSpeed="0.00" departDelay="2.50" arrival="57805.00" arrivalLane="-128361102#1_1" arrivalPos="274.68" arrivalSpeed="12.39" duration="194.00" routeLength="2250.49" waitingTime="0.00" waitingCount="0" stopTime="0.00" timeLoss="26.26" rerouteNo="1" devices="tripinfo_carIn81046:1 routing_carIn81046:1 emissions_carIn81046:1" vType="default_016" speedFactor="0.98" vaporized="">
        <emissions CO_abs="6307.061339" CO2_abs="497813.210215" HC_abs="40.319958" PMx_abs="8.178114" NOx_abs="198.055111" fuel_abs="213.988540" electricity_abs="0"/>
    </tripinfo>
    <tripinfo id="carIn12858:1" depart="57661.00" departLane="128361109#1_1" departPos="5.10" departSpeed="0.00" departDelay="0.90" arrival="57805.00" arrivalLane="399835085#1_1" arrivalPos="212.23" arrivalSpeed="7.92" duration="144.00" routeLength="1738.12" waitingTime="1.00" waitingCount="1" stopTime="0.00" timeLoss="31.18" rerouteNo="1" devices="tripinfo_carIn12858:1 routing_carIn12858:1 emissions_carIn12858:1" vType="default_016" speedFactor="1.03" vaporized="">
        <emissions CO_abs="7833.872517" CO2_abs="504721.973984" HC_abs="47.719547" PMx_abs="9.716085" NOx_abs="208.428747" fuel_abs="216.957546" electricity_abs="0"/>
    </tripinfo>
    <tripinfo id="carIn82220:1" depart="57619.00" departLane="-306240162#1_0" departPos="5.10" departSpeed="0.00" departDelay="3.50" arrival="57814.00" arrivalLane="386687235_2" arrivalPos="80.84" arrivalSpeed="11.41" duration="195.00" routeLength="2257.41" waitingTime="1.00" waitingCount="1" stopTime="0.00" timeLoss="26.29" rerouteNo="1" devices="tripinfo_carIn82220:1 routing_carIn82220:1 emissions_carIn82220:1" vType="default_016" speedFactor="0.88" vaporized="">
        <emissions CO_abs="6067.975355" CO2_abs="476254.015447" HC_abs="38.550643" PMx_abs="7.588850" NOx_abs="186.930443" fuel_abs="204.721634" electricity_abs="0"/>
    </tripinfo>
    <tripinfo id="carIn129809:1" depart="57729.00" departLane="-447569998#1_1" departPos="5.10" departSpeed="0.00" departDelay="1.00" arrival="57814.00" arrivalLane="-315358244_1" arrivalPos="33.95" arrivalSpeed="12.43" duration="85.00" routeLength="706.49" waitingTime="10.00" waitingCount="1" stopTime="0.00" timeLoss="22.29" rerouteNo="1" devices="tripinfo_carIn129809:1 routing_carIn129809:1 emissions_carIn129809:1" vType="default_015" speedFactor="0.97" vaporized="">
        <emissions CO_abs="3923.348998" CO2_abs="187944.065428" HC_abs="22.252007" PMx_abs="3.336034" NOx_abs="77.215680" fuel_abs="80.789946" electricity_abs="0"/>
    </tripinfo>
    <tripinfo id="carIn48184:1" depart="57613.00" departLane="-306240162#1_0" departPos="5.10" departSpeed="0.00" departDelay="0.70" arrival="57815.00" arrivalLane="386687235_1" arrivalPos="80.84" arrivalSpeed="12.34" duration="202.00" routeLength="2257.41" waitingTime="6.00" waitingCount="2" stopTime="0.00" timeLoss="34.26" rerouteNo="1" devices="tripinfo_carIn48184:1 routing_carIn48184:1 emissions_carIn48184:1" vType="default_016" speedFactor="0.89" vaporized="">
        <emissions CO_abs="6724.374535" CO2_abs="499108.028316" HC_abs="42.285566" PMx_abs="8.215964" NOx_abs="197.926464" fuel_abs="214.545529" electricity_abs="0"/>
    </tripinfo>
    <tripinfo id="h16072c2:3" depart="57663.00" departLane="315358254#0_1" departPos="5.10" departSpeed="0.00" departDelay="2.50" arrival="57816.00" arrivalLane="386687235_2" arrivalPos="80.84" arrivalSpeed="12.87" duration="153.00" routeLength="1611.92" waitingTime="0.00" waitingCount="0" stopTime="0.00" timeLoss="30.48" rerouteNo="1" devices="tripinfo_h16072c2:3 routing_h16072c2:3 emissions_h16072c2:3" vType="default_016" speedFactor="0.97" vaporized="">
        <emissions CO_abs="5525.383322" CO2_abs="378029.106340" HC_abs="34.009669" PMx_abs="6.412671" NOx_abs="152.675866" fuel_abs="162.498720" electricity_abs="0"/>
    </tripinfo>
    <tripinfo id="carIn462:1" depart="57622.00" departLane="-306240162#1_0" departPos="5.10" departSpeed="0.00" departDelay="4.80" arrival="57817.00" arrivalLane="386687235_1" arrivalPos="80.84" arrivalSpeed="11.92" duration="195.00" routeLength="2257.41" waitingTime="0.00" waitingCount="0" stopTime="0.00" timeLoss="27.31" rerouteNo="1" devices="tripinfo_carIn462:1 routing_carIn462:1 emissions_carIn462:1" vType="default_016" speedFactor="0.89" vaporized="">
        <emissions CO_abs="6174.555422" CO2_abs="478099.955641" HC_abs="39.280051" PMx_abs="7.737773" NOx_abs="188.572472" fuel_abs="205.515035" electricity_abs="0"/>
    </tripinfo>
    <tripinfo id="carIn46110:1" depart="57684.00" departLane="315358244_1" departPos="5.10" departSpeed="0.00" departDelay="1.20" arrival="57819.00" arrivalLane="32978638#0_1" arrivalPos="49.29" arrivalSpeed="15.14" duration="135.00" routeLength="1764.04" waitingTime="3.00" waitingCount="1" stopTime="0.00" timeLoss="19.57" rerouteNo="1" devices="tripinfo_carIn46110:1 routing_carIn46110:1 emissions_carIn46110:1" vType="default_016" speedFactor="1.11" vaporized="">
        <emissions CO_abs="4323.227916" CO2_abs="349240.790259" HC_abs="27.675083" PMx_abs="5.976149" NOx_abs="139.192094" fuel_abs="150.123273" electricity_abs="0"/>
    </tripinfo>
    <tripinfo id="carIn50326:1" depart="57651.00" departLane="128361102#0_1" departPos="5.10" departSpeed="0.00" departDelay="0.30" arrival="57821.00" arrivalLane="18809673#0_1" arrivalPos="473.56" arrivalSpeed="11.10" duration="170.00" routeLength="1591.07" waitingTime="0.00" waitingCount="0" stopTime="0.00" timeLoss="16.43" rerouteNo="1" devices="tripinfo_carIn50326:1 routing_carIn50326:1 emissions_carIn50326:1" vType="default_016" speedFactor="0.84" vaporized="">
        <emissions CO_abs="5355.174932" CO2_abs="329901.423162" HC_abs="31.978811" PMx_abs="5.065790" NOx_abs="130.503195" fuel_abs="141.811859" electricity_abs="0"/>
    </tripinfo>
    <tripinfo id="carIn86816:1" depart="57617.00" departLane="128361102#0_1" departPos="5.10" departSpeed="0.00" departDelay="0.80" arrival="57825.00" arrivalLane="201956811#0_1" arrivalPos="40.40" arrivalSpeed="10.12" duration="208.00" routeLength="2067.33" waitingTime="0.00" waitingCount="0" stopTime="0.00" timeLoss="18.12" rerouteNo="1" devices="tripinfo_carIn86816:1 routing_carIn86816:1 emissions_carIn86816:1" vType="default_016" speedFactor="0.80" vaporized="">
        <emissions CO_abs="5810.863498" CO2_abs="406423.636823" HC_abs="35.778395" PMx_abs="5.891528" NOx_abs="158.088975" fuel_abs="174.705704" electricity_abs="0"/>
    </tripinfo>
    <tripinfo id="carIn102915:1" depart="57643.00" departLane="128361102#0_1" departPos="5.10" departSpeed="0.00" departDelay="0.40" arrival="57827.00" arrivalLane="201956811#0_1" arrivalPos="40.40" arrivalSpeed="12.19" duration="184.00" routeLength="2067.33" waitingTime="0.00" waitingCount="0" stopTime="0.00" timeLoss="20.94" rerouteNo="1" devices="tripinfo_carIn102915:1 routing_carIn102915:1 emissions_carIn102915:1" vType="default_016" speedFactor="0.93" vaporized="">
        <emissions CO_abs="5086.654369" CO2_abs="406278.375254" HC_abs="32.582047" PMx_abs="6.232637" NOx_abs="158.969360" fuel_abs="174.642252" electricity_abs="0"/>
    </tripinfo>
    <tripinfo id="carIn12152:1" depart="57647.00" departLane="24599188#0.94_1" departPos="5.10" departSpeed="0.00" departDelay="0.50" arrival="57828.00" arrivalLane="-315358254#1_1" arrivalPos="137.16" arrivalSpeed="12.99" duration="181.00" routeLength="2034.31" waitingTime="0.00" waitingCount="0" stopTime="0.00" timeLoss="15.38" rerouteNo="1" devices="tripinfo_carIn12152:1 routing_carIn12152:1 emissions_carIn12152:1" vType="default_016" speedFactor="0.95" vaporized="">
        <emissions CO_abs="4886.509860" CO2_abs="389919.717089" HC_abs="31.290501" PMx_abs="5.955566" NOx_abs="152.228416" fuel_abs="167.610405" electricity_abs="0"/>
    </tripinfo>
    <tripinfo id="carIn77438:1" depart="57614.00" departLane="124812856#0_1" departPos="5.10" departSpeed="0.00" departDelay="1.10" arrival="57830.00" arrivalLane="-128361102#1_1" arrivalPos="274.68" arrivalSpeed="11.61" duration="216.00" routeLength="2250.49" waitingTime="4.00" waitingCount="1" stopTime="0.00" timeLoss="29.52" rerouteNo="1" devices="tripinfo_carIn77438:1 routing_carIn77438:1 emissions_carIn77438:1" vType="default_016" speedFactor="0.88" vaporized="">
        <emissions CO_abs="6394.010151" CO2_abs="483486.783398" HC_abs="40.294578" PMx_abs="7.337570" NOx_abs="189.226213" fuel_abs="207.831306" electricity_abs="0"/>
    </tripinfo>
    <tripinfo id="h19804c1:3" depart="57617.00" departLane="124812856#0_1" departPos="5.10" departSpeed="0.00" departDelay="1.50" arrival="57832.00" arrivalLane="-128361102#1_1" arrivalPos="274.68" arrivalSpeed="13.03" duration="215.00" routeLength="2250.49" waitingTime="3.00" waitingCount="1" stopTime="0.00" timeLoss="53.52" rerouteNo="1" devices="tripinfo_h19804c1:3 routing_h19804c1:3 emissions_h19804c1:3" vType="default_016" speedFactor="1.02" vaporized="">
        <emissions CO_abs="8075.392881" CO2_abs="549378.629777" HC_abs="49.664973" PMx_abs="9.514616" NOx_abs="223.393800" fuel_abs="236.154345" electricity_abs="0"/>
    </tripinfo>