<?xml version="1.0" encoding="UTF-8"?>

<!-- generated on 2021-10-26 11:59:21 by Eclipse SUMO sumo Version 1.10.0
<configuration xmlns:xsi="http://www.w3.org/2001/XMLSchema-instance" xsi:noNamespaceSchemaLocation="http://sumo.dlr.de/xsd/sumoConfiguration.xsd">

    <input>
        <net-file value="/Users/behradkoohy/sumo-scratchpad/RESCO/environments/ingolstadt21/ingolstadt21.net.xml"/>
        <route-files value="/Users/behradkoohy/sumo-scratchpad/RESCO/environments/ingolstadt21/ingolstadt21.rou.xml"/>
    </input>

    <output>
        <tripinfo-output value="/Users/behradkoohy/sumo-scratchpad/RESCO/logs/MAXWAVE-tr0-ingolstadt21-21-wave-wait/tripinfo_56.xml"/>
        <tripinfo-output.write-unfinished value="true"/>
    </output>

    <time>
        <begin value="57600"/>
        <end value="61200"/>
    </time>

    <processing>
        <time-to-teleport value="-1"/>
    </processing>

    <report>
        <no-warnings value="true"/>
        <no-step-log value="true"/>
    </report>

    <emissions>
        <device.emissions.probability value="1"/>
    </emissions>

    <traci_server>
        <remote-port value="57848"/>
    </traci_server>

    <random_number>
        <random value="true"/>
    </random_number>

</configuration>
-->

<tripinfos xmlns:xsi="http://www.w3.org/2001/XMLSchema-instance" xsi:noNamespaceSchemaLocation="http://sumo.dlr.de/xsd/tripinfo_file.xsd">
    <tripinfo id="carIn60260:1" depart="57606.00" departLane="315358254#0_1" departPos="5.10" departSpeed="0.00" departDelay="0.90" arrival="57656.00" arrivalLane="399835085#1_1" arrivalPos="212.23" arrivalSpeed="7.85" duration="50.00" routeLength="430.98" waitingTime="0.00" waitingCount="0" stopTime="0.00" timeLoss="6.87" rerouteNo="1" devices="tripinfo_carIn60260:1 routing_carIn60260:1 emissions_carIn60260:1" vType="default_016" speedFactor="1.09" vaporized="">
        <emissions CO_abs="1864.466632" CO2_abs="104599.782584" HC_abs="10.912368" PMx_abs="1.719817" NOx_abs="42.251112" fuel_abs="44.963354" electricity_abs="0"/>
    </tripinfo>
    <tripinfo id="h15454c2:3" depart="57612.00" departLane="24608844_1" departPos="5.10" departSpeed="0.00" departDelay="0.50" arrival="57665.00" arrivalLane="32978638#0_1" arrivalPos="49.29" arrivalSpeed="10.97" duration="53.00" routeLength="354.79" waitingTime="2.00" waitingCount="1" stopTime="0.00" timeLoss="12.38" rerouteNo="1" devices="tripinfo_h15454c2:3 routing_h15454c2:3 emissions_h15454c2:3" vType="default_016" speedFactor="0.84" vaporized="">
        <emissions CO_abs="2540.952471" CO2_abs="111624.053743" HC_abs="14.181765" PMx_abs="2.086596" NOx_abs="47.061547" fuel_abs="47.982865" electricity_abs="0"/>
    </tripinfo>
    <tripinfo id="carIn53971:1" depart="57640.00" departLane="272042143_1" departPos="5.10" departSpeed="0.00" departDelay="0.80" arrival="57689.00" arrivalLane="24634414#1_1" arrivalPos="162.19" arrivalSpeed="8.66" duration="49.00" routeLength="493.04" waitingTime="0.00" waitingCount="0" stopTime="0.00" timeLoss="8.73" rerouteNo="1" devices="tripinfo_carIn53971:1 routing_carIn53971:1 emissions_carIn53971:1" vType="default_016" speedFactor="1.13" vaporized="">
        <emissions CO_abs="2227.413617" CO2_abs="136343.785297" HC_abs="13.342771" PMx_abs="2.407224" NOx_abs="55.851275" fuel_abs="58.608463" electricity_abs="0"/>
    </tripinfo>
    <tripinfo id="S5R_frequency1.2" depart="57615.00" departLane="315358250#0_1" departPos="12.10" departSpeed="0.00" departDelay="3.40" arrival="57709.00" arrivalLane="386687235_1" arrivalPos="80.84" arrivalSpeed="13.45" duration="94.00" routeLength="1115.62" waitingTime="0.00" waitingCount="0" stopTime="0.00" timeLoss="12.28" rerouteNo="1" devices="tripinfo_S5R_frequency1.2 routing_S5R_frequency1.2 emissions_S5R_frequency1.2" vType="bus" speedFactor="1.00" vaporized="">
        <emissions CO_abs="1785.566905" CO2_abs="1122567.364814" HC_abs="380.847173" PMx_abs="191.796340" NOx_abs="8694.309614" fuel_abs="478.768646" electricity_abs="0"/>
    </tripinfo>
    <tripinfo id="h12244c1:3" depart="57612.00" departLane="315358244_1" departPos="5.10" departSpeed="0.00" departDelay="0.40" arrival="57712.00" arrivalLane="386687235_1" arrivalPos="80.84" arrivalSpeed="12.49" duration="100.00" routeLength="1186.14" waitingTime="0.00" waitingCount="0" stopTime="0.00" timeLoss="10.17" rerouteNo="1" devices="tripinfo_h12244c1:3 routing_h12244c1:3 emissions_h12244c1:3" vType="default_016" speedFactor="0.97" vaporized="">
        <emissions CO_abs="2550.858101" CO2_abs="213027.585095" HC_abs="16.547377" PMx_abs="3.258220" NOx_abs="82.992580" fuel_abs="91.571683" electricity_abs="0"/>
    </tripinfo>
    <tripinfo id="h3688c1:1" depart="57625.00" departLane="201201950#1_1" departPos="5.10" departSpeed="0.00" departDelay="0.00" arrival="57721.00" arrivalLane="32978638#0_1" arrivalPos="49.29" arrivalSpeed="13.67" duration="96.00" routeLength="1089.75" waitingTime="1.00" waitingCount="1" stopTime="0.00" timeLoss="18.02" rerouteNo="1" devices="tripinfo_h3688c1:1 routing_h3688c1:1 emissions_h3688c1:1" vType="default_016" speedFactor="1.03" vaporized="">
        <emissions CO_abs="3472.963433" CO2_abs="254194.927536" HC_abs="21.714615" PMx_abs="4.219626" NOx_abs="101.375813" fuel_abs="109.267641" electricity_abs="0"/>
    </tripinfo>
    <tripinfo id="h7800c1:5" depart="57696.00" departLane="-447569998#1_1" departPos="5.10" departSpeed="0.00" departDelay="0.00" arrival="57723.00" arrivalLane="-447569998#1_1" arrivalPos="180.76" arrivalSpeed="7.66" duration="27.00" routeLength="175.66" waitingTime="0.00" waitingCount="0" stopTime="0.00" timeLoss="3.99" rerouteNo="1" devices="tripinfo_h7800c1:5 routing_h7800c1:5 emissions_h7800c1:5" vType="default_016" speedFactor="0.93" vaporized="">
        <emissions CO_abs="1296.527436" CO2_abs="51624.356085" HC_abs="7.082171" PMx_abs="0.837117" NOx_abs="21.003068" fuel_abs="22.191607" electricity_abs="0"/>
    </tripinfo>
    <tripinfo id="h9563c2:5" depart="57631.00" departLane="315358244_1" departPos="5.10" departSpeed="0.00" departDelay="0.70" arrival="57727.00" arrivalLane="386687235_1" arrivalPos="80.84" arrivalSpeed="13.96" duration="96.00" routeLength="1186.14" waitingTime="0.00" waitingCount="0" stopTime="0.00" timeLoss="10.18" rerouteNo="1" devices="tripinfo_h9563c2:5 routing_h9563c2:5 emissions_h9563c2:5" vType="default_016" speedFactor="1.01" vaporized="">
        <emissions CO_abs="2527.316244" CO2_abs="215660.727206" HC_abs="16.498912" PMx_abs="3.387375" NOx_abs="84.311753" fuel_abs="92.703403" electricity_abs="0"/>
    </tripinfo>
    <tripinfo id="carIn80064:1" depart="57603.00" departLane="128361109#1_1" departPos="5.10" departSpeed="0.00" departDelay="0.40" arrival="57740.00" arrivalLane="-315358254#1_1" arrivalPos="137.16" arrivalSpeed="12.86" duration="137.00" routeLength="1587.97" waitingTime="14.00" waitingCount="1" stopTime="0.00" timeLoss="41.37" rerouteNo="1" devices="tripinfo_carIn80064:1 routing_carIn80064:1 emissions_carIn80064:1" vType="default_016" speedFactor="0.93" vaporized="">
        <emissions CO_abs="7239.444316" CO2_abs="436477.679830" HC_abs="43.351039" PMx_abs="8.446523" NOx_abs="180.975493" fuel_abs="187.622637" electricity_abs="0"/>
    </tripinfo>
    <tripinfo id="carIn22761:1" depart="57616.00" departLane="-306240162#1_0" departPos="5.10" departSpeed="0.00" departDelay="2.10" arrival="57745.00" arrivalLane="399835085#1_1" arrivalPos="212.23" arrivalSpeed="7.40" duration="129.00" routeLength="1093.26" waitingTime="34.00" waitingCount="1" stopTime="0.00" timeLoss="50.91" rerouteNo="1" devices="tripinfo_carIn22761:1 routing_carIn22761:1 emissions_carIn22761:1" vType="default_016" speedFactor="1.00" vaporized="">
        <emissions CO_abs="8766.155017" CO2_abs="332927.678292" HC_abs="47.747138" PMx_abs="6.652788" NOx_abs="139.897223" fuel_abs="143.113425" electricity_abs="0"/>
    </tripinfo>
    <tripinfo id="h317c2:1" depart="57707.00" departLane="-32978638#0_1" departPos="5.10" departSpeed="0.00" departDelay="0.10" arrival="57745.00" arrivalLane="-266565295#5_1" arrivalPos="172.76" arrivalSpeed="13.17" duration="38.00" routeLength="370.53" waitingTime="2.00" waitingCount="1" stopTime="0.00" timeLoss="10.80" rerouteNo="1" devices="tripinfo_h317c2:1 routing_h317c2:1 emissions_h317c2:1" vType="default_016" speedFactor="1.00" vaporized="">
        <emissions CO_abs="1986.890122" CO2_abs="117653.755503" HC_abs="11.814358" PMx_abs="2.107103" NOx_abs="48.274178" fuel_abs="50.574427" electricity_abs="0"/>
    </tripinfo>
    <tripinfo id="h3568c1:3" depart="57656.00" departLane="266565295#5_1" departPos="5.10" departSpeed="0.00" departDelay="0.80" arrival="57746.00" arrivalLane="-24634415_1" arrivalPos="62.03" arrivalSpeed="13.86" duration="90.00" routeLength="807.40" waitingTime="9.00" waitingCount="1" stopTime="0.00" timeLoss="28.05" rerouteNo="1" devices="tripinfo_h3568c1:3 routing_h3568c1:3 emissions_h3568c1:3" vType="default_016" speedFactor="1.04" vaporized="">
        <emissions CO_abs="4577.275732" CO2_abs="252996.067506" HC_abs="26.747019" PMx_abs="4.531781" NOx_abs="103.836039" fuel_abs="108.752674" electricity_abs="0"/>
    </tripinfo>
    <tripinfo id="carIn30817:1" depart="57681.00" departLane="315358244_1" departPos="5.10" departSpeed="0.00" departDelay="0.20" arrival="57748.00" arrivalLane="447569997#1_1" arrivalPos="180.93" arrivalSpeed="7.99" duration="67.00" routeLength="718.04" waitingTime="0.00" waitingCount="0" stopTime="0.00" timeLoss="8.05" rerouteNo="1" devices="tripinfo_carIn30817:1 routing_carIn30817:1 emissions_carIn30817:1" vType="default_016" speedFactor="1.04" vaporized="">
        <emissions CO_abs="2244.195304" CO2_abs="157853.546728" HC_abs="13.900938" PMx_abs="2.576618" NOx_abs="62.790462" fuel_abs="67.854694" electricity_abs="0"/>
    </tripinfo>
    <tripinfo id="h7181c1:1" depart="57660.00" departLane="315358254#0_1" departPos="5.10" departSpeed="0.00" departDelay="0.10" arrival="57751.00" arrivalLane="306240162#0_0" arrivalPos="220.43" arrivalSpeed="16.24" duration="91.00" routeLength="932.35" waitingTime="26.00" waitingCount="1" stopTime="0.00" timeLoss="39.39" rerouteNo="1" devices="tripinfo_h7181c1:1 routing_h7181c1:1 emissions_h7181c1:1" vType="default_016" speedFactor="1.00" vaporized="">
        <emissions CO_abs="6847.989405" CO2_abs="297786.704645" HC_abs="38.185079" PMx_abs="5.926918" NOx_abs="123.492720" fuel_abs="128.006939" electricity_abs="0"/>
    </tripinfo>
    <tripinfo id="h3326c1:2" depart="57656.00" departLane="22716069#0_1" departPos="5.10" departSpeed="0.00" departDelay="0.00" arrival="57757.00" arrivalLane="24634517#13_1" arrivalPos="111.62" arrivalSpeed="14.86" duration="101.00" routeLength="1312.81" waitingTime="0.00" waitingCount="0" stopTime="0.00" timeLoss="17.22" rerouteNo="1" devices="tripinfo_h3326c1:2 routing_h3326c1:2 emissions_h3326c1:2" vType="default_016" speedFactor="1.16" vaporized="">
        <emissions CO_abs="3815.310045" CO2_abs="309462.724125" HC_abs="24.560702" PMx_abs="5.302809" NOx_abs="123.497727" fuel_abs="133.024414" electricity_abs="0"/>
    </tripinfo>
    <tripinfo id="h5979c1:5" depart="57669.00" departLane="399835085#1_1" departPos="5.10" departSpeed="0.00" departDelay="0.00" arrival="57761.00" arrivalLane="-315358254#1_1" arrivalPos="137.16" arrivalSpeed="12.84" duration="92.00" routeLength="659.33" waitingTime="0.00" waitingCount="0" stopTime="0.00" timeLoss="16.89" rerouteNo="1" devices="tripinfo_h5979c1:5 routing_h5979c1:5 emissions_h5979c1:5" vType="default_016" speedFactor="0.97" vaporized="">
        <emissions CO_abs="3808.690834" CO2_abs="172599.944332" HC_abs="21.314098" PMx_abs="2.853545" NOx_abs="70.269667" fuel_abs="74.194519" electricity_abs="0"/>
    </tripinfo>
    <tripinfo id="h4538c1:1" depart="57701.00" departLane="-10427692#1_1" departPos="5.10" departSpeed="0.00" departDelay="0.00" arrival="57761.00" arrivalLane="-128361102#1_1" arrivalPos="274.68" arrivalSpeed="11.39" duration="60.00" routeLength="440.74" waitingTime="12.00" waitingCount="1" stopTime="0.00" timeLoss="23.92" rerouteNo="1" devices="tripinfo_h4538c1:1 routing_h4538c1:1 emissions_h4538c1:1" vType="default_016" speedFactor="0.88" vaporized="">
        <emissions CO_abs="3093.396675" CO2_abs="130501.104513" HC_abs="17.116585" PMx_abs="2.291926" NOx_abs="53.415491" fuel_abs="56.097778" electricity_abs="0"/>
    </tripinfo>
    <tripinfo id="h3154c1:1" depart="57658.00" departLane="24634507_1" departPos="5.10" departSpeed="0.00" departDelay="0.00" arrival="57766.00" arrivalLane="-266565295#5_1" arrivalPos="172.76" arrivalSpeed="14.12" duration="108.00" routeLength="1206.22" waitingTime="4.00" waitingCount="1" stopTime="0.00" timeLoss="25.41" rerouteNo="1" devices="tripinfo_h3154c1:1 routing_h3154c1:1 emissions_h3154c1:1" vType="default_016" speedFactor="1.08" vaporized="">
        <emissions CO_abs="4563.930419" CO2_abs="321957.918268" HC_abs="28.266772" PMx_abs="5.637550" NOx_abs="130.204389" fuel_abs="138.395778" electricity_abs="0"/>
    </tripinfo>
    <tripinfo id="carIn118591:1" depart="57689.00" departLane="315358244_1" departPos="5.10" departSpeed="0.00" departDelay="0.20" arrival="57772.00" arrivalLane="386687235_1" arrivalPos="80.84" arrivalSpeed="15.98" duration="83.00" routeLength="1186.14" waitingTime="0.00" waitingCount="0" stopTime="0.00" timeLoss="9.46" rerouteNo="1" devices="tripinfo_carIn118591:1 routing_carIn118591:1 emissions_carIn118591:1" vType="default_016" speedFactor="1.17" vaporized="">
        <emissions CO_abs="2868.380229" CO2_abs="250971.047693" HC_abs="18.836628" PMx_abs="4.317702" NOx_abs="99.531369" fuel_abs="107.881258" electricity_abs="0"/>
    </tripinfo>
    <tripinfo id="h330c1:1" depart="57736.00" departLane="-32978638#0_1" departPos="5.10" departSpeed="0.00" departDelay="0.20" arrival="57774.00" arrivalLane="-266565295#5_1" arrivalPos="172.76" arrivalSpeed="13.16" duration="38.00" routeLength="370.53" waitingTime="3.00" waitingCount="1" stopTime="0.00" timeLoss="11.52" rerouteNo="1" devices="tripinfo_h330c1:1 routing_h330c1:1 emissions_h330c1:1" vType="default_016" speedFactor="1.03" vaporized="">
        <emissions CO_abs="2046.256927" CO2_abs="119191.967716" HC_abs="12.117108" PMx_abs="2.225776" NOx_abs="49.541428" fuel_abs="51.235520" electricity_abs="0"/>
    </tripinfo>
    <tripinfo id="carIn28951:1" depart="57606.00" departLane="10425609#0_1" departPos="5.10" departSpeed="0.00" departDelay="0.20" arrival="57780.00" arrivalLane="-128361102#1_1" arrivalPos="274.68" arrivalSpeed="13.24" duration="174.00" routeLength="2113.04" waitingTime="0.00" waitingCount="0" stopTime="0.00" timeLoss="19.71" rerouteNo="1" devices="tripinfo_carIn28951:1 routing_carIn28951:1 emissions_carIn28951:1" vType="default_016" speedFactor="1.01" vaporized="">
        <emissions CO_abs="5109.771944" CO2_abs="429409.853707" HC_abs="33.272763" PMx_abs="6.885938" NOx_abs="169.169039" fuel_abs="184.584909" electricity_abs="0"/>
    </tripinfo>
    <tripinfo id="carIn86816:1" depart="57617.00" departLane="128361102#0_1" departPos="5.10" departSpeed="0.00" departDelay="0.80" arrival="57780.00" arrivalLane="201956811#0_1" arrivalPos="40.40" arrivalSpeed="14.47" duration="163.00" routeLength="2067.33" waitingTime="0.00" waitingCount="0" stopTime="0.00" timeLoss="19.73" rerouteNo="1" devices="tripinfo_carIn86816:1 routing_carIn86816:1 emissions_carIn86816:1" vType="default_016" speedFactor="1.06" vaporized="">
        <emissions CO_abs="4955.637249" CO2_abs="415876.831042" HC_abs="32.282061" PMx_abs="6.976659" NOx_abs="165.441428" fuel_abs="178.767211" electricity_abs="0"/>
    </tripinfo>
    <tripinfo id="h645c1:1" depart="57622.00" departLane="266565295#5_1" departPos="5.10" departSpeed="0.00" departDelay="0.40" arrival="57783.00" arrivalLane="-315358244_1" arrivalPos="33.95" arrivalSpeed="12.01" duration="161.00" routeLength="1910.83" waitingTime="0.00" waitingCount="0" stopTime="0.00" timeLoss="11.80" rerouteNo="1" devices="tripinfo_h645c1:1 routing_h645c1:1 emissions_h645c1:1" vType="default_016" speedFactor="0.93" vaporized="">
        <emissions CO_abs="3463.325104" CO2_abs="334036.828776" HC_abs="23.479658" PMx_abs="4.745856" NOx_abs="127.395266" fuel_abs="143.588656" electricity_abs="0"/>
    </tripinfo>
    <tripinfo id="carIn107084:1" depart="57601.00" departLane="124812856#0_1" departPos="5.10" departSpeed="0.00" departDelay="0.70" arrival="57788.00" arrivalLane="-128361102#1_1" arrivalPos="274.68" arrivalSpeed="13.55" duration="187.00" routeLength="2250.49" waitingTime="3.00" waitingCount="1" stopTime="0.00" timeLoss="28.25" rerouteNo="1" devices="tripinfo_carIn107084:1 routing_carIn107084:1 emissions_carIn107084:1" vType="default_016" speedFactor="1.03" vaporized="">
        <emissions CO_abs="5712.810455" CO2_abs="474700.406943" HC_abs="36.995759" PMx_abs="7.778800" NOx_abs="187.781219" fuel_abs="204.053190" electricity_abs="0"/>
    </tripinfo>
    <tripinfo id="carIn27009:1" depart="57673.00" departLane="-447569998#1_1" departPos="5.10" departSpeed="0.00" departDelay="0.50" arrival="57790.00" arrivalLane="-26677539_1" arrivalPos="152.75" arrivalSpeed="6.86" duration="117.00" routeLength="699.63" waitingTime="10.00" waitingCount="1" stopTime="0.00" timeLoss="28.64" rerouteNo="1" devices="tripinfo_carIn27009:1 routing_carIn27009:1 emissions_carIn27009:1" vType="default_015" speedFactor="0.95" vaporized="">
        <emissions CO_abs="4936.614440" CO2_abs="200135.968019" HC_abs="27.089340" PMx_abs="3.441597" NOx_abs="82.604419" fuel_abs="86.031482" electricity_abs="0"/>
    </tripinfo>
    <tripinfo id="carIn77943:1" depart="57608.00" departLane="124812856#0_1" departPos="5.10" departSpeed="0.00" departDelay="2.50" arrival="57792.00" arrivalLane="-128361102#1_1" arrivalPos="274.68" arrivalSpeed="14.37" duration="184.00" routeLength="2250.49" waitingTime="0.00" waitingCount="0" stopTime="0.00" timeLoss="33.66" rerouteNo="1" devices="tripinfo_carIn77943:1 routing_carIn77943:1 emissions_carIn77943:1" vType="default_016" speedFactor="1.09" vaporized="">
        <emissions CO_abs="6670.765234" CO2_abs="496363.820733" HC_abs="41.971441" PMx_abs="8.669482" NOx_abs="200.421343" fuel_abs="213.365077" electricity_abs="0"/>
    </tripinfo>
    <tripinfo id="carIn107282:1" depart="57749.00" departLane="-447569998#1_1" departPos="5.10" departSpeed="0.00" departDelay="0.00" arrival="57792.00" arrivalLane="315358242#0_1" arrivalPos="165.37" arrivalSpeed="15.26" duration="43.00" routeLength="448.50" waitingTime="0.00" waitingCount="0" stopTime="0.00" timeLoss="5.96" rerouteNo="1" devices="tripinfo_carIn107282:1 routing_carIn107282:1 emissions_carIn107282:1" vType="default_016" speedFactor="1.12" vaporized="">
        <emissions CO_abs="2068.193576" CO2_abs="122867.276241" HC_abs="12.299514" PMx_abs="2.162744" NOx_abs="50.209291" fuel_abs="52.815549" electricity_abs="0"/>
    </tripinfo>
    <tripinfo id="carIn48184:1" depart="57613.00" departLane="-306240162#1_0" departPos="5.10" departSpeed="0.00" departDelay="0.70" arrival="57794.00" arrivalLane="386687235_1" arrivalPos="80.84" arrivalSpeed="14.69" duration="181.00" routeLength="2257.41" waitingTime="19.00" waitingCount="2" stopTime="0.00" timeLoss="47.84" rerouteNo="1" devices="tripinfo_carIn48184:1 routing_carIn48184:1 emissions_carIn48184:1" vType="default_016" speedFactor="1.12" vaporized="">
        <emissions CO_abs="8522.701084" CO2_abs="544032.499333" HC_abs="51.671770" PMx_abs="10.259842" NOx_abs="222.101708" fuel_abs="233.855892" electricity_abs="0"/>
    </tripinfo>
    <tripinfo id="carIn462:1" depart="57622.00" departLane="-306240162#1_0" departPos="5.10" departSpeed="0.00" departDelay="4.80" arrival="57795.00" arrivalLane="386687235_2" arrivalPos="80.84" arrivalSpeed="14.77" duration="173.00" routeLength="2257.41" waitingTime="0.00" waitingCount="0" stopTime="0.00" timeLoss="32.37" rerouteNo="1" devices="tripinfo_carIn462:1 routing_carIn462:1 emissions_carIn462:1" vType="default_016" speedFactor="1.06" vaporized="">
        <emissions CO_abs="6729.917576" CO2_abs="514258.737513" HC_abs="42.727651" PMx_abs="9.156006" NOx_abs="207.098063" fuel_abs="221.057073" electricity_abs="0"/>
    </tripinfo>
    <tripinfo id="h11737c1:1" depart="57665.00" departLane="272042143_1" departPos="5.10" departSpeed="0.00" departDelay="1.50" arrival="57796.00" arrivalLane="-315358254#1_1" arrivalPos="137.16" arrivalSpeed="14.93" duration="131.00" routeLength="1596.88" waitingTime="5.00" waitingCount="1" stopTime="0.00" timeLoss="24.91" rerouteNo="1" devices="tripinfo_h11737c1:1 routing_h11737c1:1 emissions_h11737c1:1" vType="default_016" speedFactor="1.10" vaporized="">
        <emissions CO_abs="4159.755866" CO2_abs="350939.917630" HC_abs="26.856153" PMx_abs="5.742423" NOx_abs="138.079258" fuel_abs="150.853893" electricity_abs="0"/>
    </tripinfo>
    <tripinfo id="carIn82220:1" depart="57619.00" departLane="-306240162#1_0" departPos="5.10" departSpeed="0.00" departDelay="3.50" arrival="57797.00" arrivalLane="386687235_1" arrivalPos="80.84" arrivalSpeed="12.74" duration="178.00" routeLength="2257.41" waitingTime="1.00" waitingCount="1" stopTime="0.00" timeLoss="24.84" rerouteNo="1" devices="tripinfo_carIn82220:1 routing_carIn82220:1 emissions_carIn82220:1" vType="default_016" speedFactor="0.97" vaporized="">
        <emissions CO_abs="5709.752283" CO2_abs="464358.661702" HC_abs="36.859805" PMx_abs="7.831653" NOx_abs="184.059549" fuel_abs="199.607607" electricity_abs="0"/>
    </tripinfo>
    <tripinfo id="carIn12365:1" depart="57713.00" departLane="315358244_1" departPos="5.10" departSpeed="0.00" departDelay="0.50" arrival="57797.00" arrivalLane="447569997#1_1" arrivalPos="180.93" arrivalSpeed="6.60" duration="84.00" routeLength="718.04" waitingTime="0.00" waitingCount="0" stopTime="0.00" timeLoss="9.09" rerouteNo="1" devices="tripinfo_carIn12365:1 routing_carIn12365:1 emissions_carIn12365:1" vType="default_016" speedFactor="0.82" vaporized="">
        <emissions CO_abs="2784.469268" CO2_abs="146246.683468" HC_abs="16.009763" PMx_abs="2.141972" NOx_abs="57.394959" fuel_abs="62.866279" electricity_abs="0"/>
    </tripinfo>
    <tripinfo id="carIn126288:1" depart="57674.00" departLane="272042143_1" departPos="5.10" departSpeed="0.00" departDelay="0.00" arrival="57798.00" arrivalLane="-315358254#1_1" arrivalPos="137.16" arrivalSpeed="14.13" duration="124.00" routeLength="1596.88" waitingTime="0.00" waitingCount="0" stopTime="0.00" timeLoss="15.99" rerouteNo="1" devices="tripinfo_carIn126288:1 routing_carIn126288:1 emissions_carIn126288:1" vType="default_016" speedFactor="1.08" vaporized="">
        <emissions CO_abs="3721.098710" CO2_abs="320884.211289" HC_abs="24.372085" PMx_abs="5.223950" NOx_abs="126.146098" fuel_abs="137.934245" electricity_abs="0"/>
    </tripinfo>
    <tripinfo id="carIn50326:1" depart="57651.00" departLane="128361102#0_1" departPos="5.10" departSpeed="0.00" departDelay="0.30" arrival="57802.00" arrivalLane="18809673#0_1" arrivalPos="473.56" arrivalSpeed="12.67" duration="151.00" routeLength="1591.07" waitingTime="0.00" waitingCount="0" stopTime="0.00" timeLoss="18.36" rerouteNo="1" devices="tripinfo_carIn50326:1 routing_carIn50326:1 emissions_carIn50326:1" vType="default_016" speedFactor="0.98" vaporized="">
        <emissions CO_abs="4749.952265" CO2_abs="329215.276727" HC_abs="29.272443" PMx_abs="5.236932" NOx_abs="130.439026" fuel_abs="141.516226" electricity_abs="0"/>
    </tripinfo>
    <tripinfo id="carIn129809:1" depart="57729.00" departLane="-447569998#1_1" departPos="5.10" departSpeed="0.00" departDelay="1.00" arrival="57802.00" arrivalLane="-315358244_1" arrivalPos="33.95" arrivalSpeed="12.24" duration="73.00" routeLength="706.49" waitingTime="0.00" waitingCount="0" stopTime="0.00" timeLoss="7.21" rerouteNo="1" devices="tripinfo_carIn129809:1 routing_carIn129809:1 emissions_carIn129809:1" vType="default_015" speedFactor="0.91" vaporized="">
        <emissions CO_abs="2339.993877" CO2_abs="145852.565673" HC_abs="14.008100" PMx_abs="2.198483" NOx_abs="57.255756" fuel_abs="62.696433" electricity_abs="0"/>
    </tripinfo>
    <tripinfo id="carIn81046:1" depart="57611.00" departLane="124812856#0_1" departPos="5.10" departSpeed="0.00" departDelay="2.50" arrival="57804.00" arrivalLane="-128361102#1_1" arrivalPos="274.68" arrivalSpeed="12.59" duration="193.00" routeLength="2250.49" waitingTime="0.00" waitingCount="0" stopTime="0.00" timeLoss="27.03" rerouteNo="1" devices="tripinfo_carIn81046:1 routing_carIn81046:1 emissions_carIn81046:1" vType="default_016" speedFactor="0.99" vaporized="">
        <emissions CO_abs="5711.471843" CO2_abs="446925.977691" HC_abs="36.428293" PMx_abs="7.224335" NOx_abs="176.914376" fuel_abs="192.114543" electricity_abs="0"/>
    </tripinfo>
    <tripinfo id="carIn77438:1" depart="57614.00" departLane="124812856#0_1" departPos="5.10" departSpeed="0.00" departDelay="1.10" arrival="57806.00" arrivalLane="-128361102#1_1" arrivalPos="274.68" arrivalSpeed="13.52" duration="192.00" routeLength="2250.49" waitingTime="0.00" waitingCount="0" stopTime="0.00" timeLoss="35.20" rerouteNo="1" devices="tripinfo_carIn77438:1 routing_carIn77438:1 emissions_carIn77438:1" vType="default_016" speedFactor="1.05" vaporized="">
        <emissions CO_abs="6359.755876" CO2_abs="504557.830413" HC_abs="40.748904" PMx_abs="8.306312" NOx_abs="200.606749" fuel_abs="216.887738" electricity_abs="0"/>
    </tripinfo>
    <tripinfo id="carIn116184:1" depart="57627.00" departLane="-306240162#1_0" departPos="5.10" departSpeed="0.00" departDelay="0.10" arrival="57813.00" arrivalLane="386687235_1" arrivalPos="80.84" arrivalSpeed="12.65" duration="186.00" routeLength="2257.41" waitingTime="8.00" waitingCount="1" stopTime="0.00" timeLoss="37.97" rerouteNo="1" devices="tripinfo_carIn116184:1 routing_carIn116184:1 emissions_carIn116184:1" vType="default_016" speedFactor="1.00" vaporized="">
        <emissions CO_abs="6391.264124" CO2_abs="492416.579609" HC_abs="40.504638" PMx_abs="8.311290" NOx_abs="195.296109" fuel_abs="211.668738" electricity_abs="0"/>
    </tripinfo>
    <tripinfo id="carIn31257:1" depart="57630.00" departLane="-306240162#1_0" departPos="5.10" departSpeed="0.00" departDelay="1.60" arrival="57813.00" arrivalLane="386687235_2" arrivalPos="80.84" arrivalSpeed="13.86" duration="183.00" routeLength="2257.41" waitingTime="7.00" waitingCount="2" stopTime="0.00" timeLoss="46.58" rerouteNo="1" devices="tripinfo_carIn31257:1 routing_carIn31257:1 emissions_carIn31257:1" vType="default_016" speedFactor="1.08" vaporized="">
        <emissions CO_abs="7493.583440" CO2_abs="544102.405008" HC_abs="46.949891" PMx_abs="9.808985" NOx_abs="220.129491" fuel_abs="233.885661" electricity_abs="0"/>
    </tripinfo>
    <tripinfo id="carIn101568:1" depart="57638.00" departLane="-306240162#1_0" departPos="5.10" departSpeed="0.00" departDelay="0.50" arrival="57815.00" arrivalLane="386687235_1" arrivalPos="80.84" arrivalSpeed="13.82" duration="177.00" routeLength="2257.41" waitingTime="7.00" waitingCount="2" stopTime="0.00" timeLoss="40.40" rerouteNo="1" devices="tripinfo_carIn101568:1 routing_carIn101568:1 emissions_carIn101568:1" vType="default_016" speedFactor="1.08" vaporized="">
        <emissions CO_abs="6636.806903" CO2_abs="519595.726767" HC_abs="42.384926" PMx_abs="9.115868" NOx_abs="206.785213" fuel_abs="223.351432" electricity_abs="0"/>
    </tripinfo>
    <tripinfo id="h16072c2:3" depart="57663.00" departLane="315358254#0_1" departPos="5.10" departSpeed="0.00" departDelay="2.50" arrival="57816.00" arrivalLane="386687235_2" arrivalPos="80.84" arrivalSpeed="13.96" duration="153.00" routeLength="1611.92" waitingTime="10.00" waitingCount="1" stopTime="0.00" timeLoss="35.64" rerouteNo="1" devices="tripinfo_h16072c2:3 routing_h16072c2:3 emissions_h16072c2:3" vType="default_016" speedFactor="1.01" vaporized="">
        <emissions CO_abs="5422.568122" CO2_abs="372902.654417" HC_abs="33.379421" PMx_abs="6.172787" NOx_abs="148.548435" fuel_abs="160.295390" electricity_abs="0"/>
    </tripinfo>
    <tripinfo id="carIn82278:1" depart="57702.00" departLane="-306240162#1_0" departPos="5.10" departSpeed="0.00" departDelay="0.70" arrival="57817.00" arrivalLane="399835085#1_1" arrivalPos="212.23" arrivalSpeed="7.03" duration="115.00" routeLength="1093.26" waitingTime="17.00" waitingCount="1" stopTime="0.00" timeLoss="33.82" rerouteNo="1" devices="tripinfo_carIn82278:1 routing_carIn82278:1 emissions_carIn82278:1" vType="default_016" speedFactor="0.96" vaporized="">
        <emissions CO_abs="5812.874747" CO2_abs="290194.834829" HC_abs="33.232199" PMx_abs="5.314928" NOx_abs="118.297803" fuel_abs="124.743362" electricity_abs="0"/>
    </tripinfo>
    <tripinfo id="carIn12858:1" depart="57661.00" departLane="128361109#1_1" departPos="5.10" departSpeed="0.00" departDelay="0.90" arrival="57819.00" arrivalLane="399835085#1_1" arrivalPos="212.23" arrivalSpeed="7.93" duration="158.00" routeLength="1738.12" waitingTime="5.00" waitingCount="2" stopTime="0.00" timeLoss="43.93" rerouteNo="1" devices="tripinfo_carIn12858:1 routing_carIn12858:1 emissions_carIn12858:1" vType="default_016" speedFactor="1.01" vaporized="">
        <emissions CO_abs="8392.991602" CO2_abs="517722.226295" HC_abs="50.538859" PMx_abs="9.892855" NOx_abs="213.365488" fuel_abs="222.546189" electricity_abs="0"/>
    </tripinfo>
    <tripinfo id="h19804c1:3" depart="57617.00" departLane="124812856#0_1" departPos="5.10" departSpeed="0.00" departDelay="1.50" arrival="57825.00" arrivalLane="-128361102#1_1" arrivalPos="274.68" arrivalSpeed="11.65" duration="208.00" routeLength="2250.49" waitingTime="0.00" waitingCount="0" stopTime="0.00" timeLoss="22.30" rerouteNo="1" devices="tripinfo_h19804c1:3 routing_h19804c1:3 emissions_h19804c1:3" vType="default_016" speedFactor="0.89" vaporized="">
        <emissions CO_abs="5545.050403" CO2_abs="438264.301109" HC_abs="35.389942" PMx_abs="6.640467" NOx_abs="171.380073" fuel_abs="188.391810" electricity_abs="0"/>
    </tripinfo>