<?xml version="1.0" encoding="UTF-8"?>

<!-- generated on 2021-10-26 11:47:03 by Eclipse SUMO sumo Version 1.10.0
<configuration xmlns:xsi="http://www.w3.org/2001/XMLSchema-instance" xsi:noNamespaceSchemaLocation="http://sumo.dlr.de/xsd/sumoConfiguration.xsd">

    <input>
        <net-file value="/Users/behradkoohy/sumo-scratchpad/RESCO/environments/ingolstadt21/ingolstadt21.net.xml"/>
        <route-files value="/Users/behradkoohy/sumo-scratchpad/RESCO/environments/ingolstadt21/ingolstadt21.rou.xml"/>
    </input>

    <output>
        <tripinfo-output value="/Users/behradkoohy/sumo-scratchpad/RESCO/logs/MAXWAVE-tr0-ingolstadt21-21-wave-wait/tripinfo_36.xml"/>
        <tripinfo-output.write-unfinished value="true"/>
    </output>

    <time>
        <begin value="57600"/>
        <end value="61200"/>
    </time>

    <processing>
        <time-to-teleport value="-1"/>
    </processing>

    <report>
        <no-warnings value="true"/>
        <no-step-log value="true"/>
    </report>

    <emissions>
        <device.emissions.probability value="1"/>
    </emissions>

    <traci_server>
        <remote-port value="57554"/>
    </traci_server>

    <random_number>
        <random value="true"/>
    </random_number>

</configuration>
-->

<tripinfos xmlns:xsi="http://www.w3.org/2001/XMLSchema-instance" xsi:noNamespaceSchemaLocation="http://sumo.dlr.de/xsd/tripinfo_file.xsd">
    <tripinfo id="h15454c2:3" depart="57612.00" departLane="24608844_1" departPos="5.10" departSpeed="0.00" departDelay="0.50" arrival="57654.00" arrivalLane="32978638#0_1" arrivalPos="49.29" arrivalSpeed="11.92" duration="42.00" routeLength="354.79" waitingTime="0.00" waitingCount="0" stopTime="0.00" timeLoss="5.30" rerouteNo="1" devices="tripinfo_h15454c2:3 routing_h15454c2:3 emissions_h15454c2:3" vType="default_016" speedFactor="0.93" vaporized="">
        <emissions CO_abs="1826.925852" CO2_abs="94189.508501" HC_abs="10.505080" PMx_abs="1.604226" NOx_abs="38.500428" fuel_abs="40.488417" electricity_abs="0"/>
    </tripinfo>
    <tripinfo id="carIn60260:1" depart="57606.00" departLane="315358254#0_1" departPos="5.10" departSpeed="0.00" departDelay="0.90" arrival="57655.00" arrivalLane="399835085#1_1" arrivalPos="212.23" arrivalSpeed="8.88" duration="49.00" routeLength="430.98" waitingTime="0.00" waitingCount="0" stopTime="0.00" timeLoss="6.63" rerouteNo="1" devices="tripinfo_carIn60260:1 routing_carIn60260:1 emissions_carIn60260:1" vType="default_016" speedFactor="1.10" vaporized="">
        <emissions CO_abs="2047.128458" CO2_abs="116213.746080" HC_abs="12.026430" PMx_abs="1.973506" NOx_abs="47.315644" fuel_abs="49.955630" electricity_abs="0"/>
    </tripinfo>
    <tripinfo id="carIn53971:1" depart="57640.00" departLane="272042143_1" departPos="5.10" departSpeed="0.00" departDelay="0.80" arrival="57692.00" arrivalLane="24634414#1_1" arrivalPos="162.19" arrivalSpeed="8.58" duration="52.00" routeLength="493.04" waitingTime="0.00" waitingCount="0" stopTime="0.00" timeLoss="8.37" rerouteNo="1" devices="tripinfo_carIn53971:1 routing_carIn53971:1 emissions_carIn53971:1" vType="default_016" speedFactor="1.06" vaporized="">
        <emissions CO_abs="2539.811183" CO2_abs="147002.134562" HC_abs="15.016144" PMx_abs="2.636029" NOx_abs="60.672352" fuel_abs="63.190076" electricity_abs="0"/>
    </tripinfo>
    <tripinfo id="h12244c1:3" depart="57612.00" departLane="315358244_1" departPos="5.10" departSpeed="0.00" departDelay="0.40" arrival="57702.00" arrivalLane="386687235_1" arrivalPos="80.84" arrivalSpeed="14.79" duration="90.00" routeLength="1186.14" waitingTime="0.00" waitingCount="0" stopTime="0.00" timeLoss="8.93" rerouteNo="1" devices="tripinfo_h12244c1:3 routing_h12244c1:3 emissions_h12244c1:3" vType="default_016" speedFactor="1.07" vaporized="">
        <emissions CO_abs="2548.113707" CO2_abs="222781.816386" HC_abs="16.782416" PMx_abs="3.626275" NOx_abs="87.552925" fuel_abs="95.764245" electricity_abs="0"/>
    </tripinfo>
    <tripinfo id="S5R_frequency1.2" depart="57615.00" departLane="315358250#0_1" departPos="12.10" departSpeed="0.00" departDelay="3.40" arrival="57708.00" arrivalLane="386687235_1" arrivalPos="80.84" arrivalSpeed="13.87" duration="93.00" routeLength="1115.62" waitingTime="0.00" waitingCount="0" stopTime="0.00" timeLoss="11.46" rerouteNo="1" devices="tripinfo_S5R_frequency1.2 routing_S5R_frequency1.2 emissions_S5R_frequency1.2" vType="bus" speedFactor="1.00" vaporized="">
        <emissions CO_abs="1914.824593" CO2_abs="1225580.643507" HC_abs="402.468205" PMx_abs="205.873442" NOx_abs="9439.261349" fuel_abs="522.705484" electricity_abs="0"/>
    </tripinfo>
    <tripinfo id="carIn80064:1" depart="57603.00" departLane="128361109#1_1" departPos="5.10" departSpeed="0.00" departDelay="0.40" arrival="57714.00" arrivalLane="-315358254#1_1" arrivalPos="137.16" arrivalSpeed="13.42" duration="111.00" routeLength="1587.97" waitingTime="1.00" waitingCount="1" stopTime="0.00" timeLoss="23.34" rerouteNo="1" devices="tripinfo_carIn80064:1 routing_carIn80064:1 emissions_carIn80064:1" vType="default_016" speedFactor="1.03" vaporized="">
        <emissions CO_abs="6830.533216" CO2_abs="477359.926896" HC_abs="42.604317" PMx_abs="9.476875" NOx_abs="198.019257" fuel_abs="205.194988" electricity_abs="0"/>
    </tripinfo>
    <tripinfo id="h3688c1:1" depart="57625.00" departLane="201201950#1_1" departPos="5.10" departSpeed="0.00" departDelay="0.00" arrival="57718.00" arrivalLane="32978638#0_1" arrivalPos="49.29" arrivalSpeed="15.47" duration="93.00" routeLength="1089.75" waitingTime="7.00" waitingCount="1" stopTime="0.00" timeLoss="22.04" rerouteNo="1" devices="tripinfo_h3688c1:1 routing_h3688c1:1 emissions_h3688c1:1" vType="default_016" speedFactor="1.12" vaporized="">
        <emissions CO_abs="4515.951426" CO2_abs="295527.965040" HC_abs="27.490546" PMx_abs="5.426358" NOx_abs="120.806717" fuel_abs="127.034617" electricity_abs="0"/>
    </tripinfo>
    <tripinfo id="h7800c1:5" depart="57696.00" departLane="-447569998#1_1" departPos="5.10" departSpeed="0.00" departDelay="0.00" arrival="57720.00" arrivalLane="-447569998#1_1" arrivalPos="180.76" arrivalSpeed="7.85" duration="24.00" routeLength="175.66" waitingTime="0.00" waitingCount="0" stopTime="0.00" timeLoss="2.77" rerouteNo="1" devices="tripinfo_h7800c1:5 routing_h7800c1:5 emissions_h7800c1:5" vType="default_016" speedFactor="1.04" vaporized="">
        <emissions CO_abs="991.799004" CO2_abs="45633.709516" HC_abs="5.569985" PMx_abs="0.774076" NOx_abs="18.730268" fuel_abs="19.616248" electricity_abs="0"/>
    </tripinfo>
    <tripinfo id="h9563c2:5" depart="57631.00" departLane="315358244_1" departPos="5.10" departSpeed="0.00" departDelay="0.70" arrival="57733.00" arrivalLane="386687235_1" arrivalPos="80.84" arrivalSpeed="12.86" duration="102.00" routeLength="1186.14" waitingTime="0.00" waitingCount="0" stopTime="0.00" timeLoss="8.47" rerouteNo="1" devices="tripinfo_h9563c2:5 routing_h9563c2:5 emissions_h9563c2:5" vType="default_016" speedFactor="0.93" vaporized="">
        <emissions CO_abs="2849.850936" CO2_abs="235142.611643" HC_abs="18.443435" PMx_abs="3.647689" NOx_abs="92.121560" fuel_abs="101.077946" electricity_abs="0"/>
    </tripinfo>
    <tripinfo id="h317c2:1" depart="57707.00" departLane="-32978638#0_1" departPos="5.10" departSpeed="0.00" departDelay="0.10" arrival="57747.00" arrivalLane="-266565295#5_1" arrivalPos="172.76" arrivalSpeed="12.26" duration="40.00" routeLength="370.53" waitingTime="1.00" waitingCount="1" stopTime="0.00" timeLoss="8.97" rerouteNo="1" devices="tripinfo_h317c2:1 routing_h317c2:1 emissions_h317c2:1" vType="default_016" speedFactor="0.90" vaporized="">
        <emissions CO_abs="1950.498023" CO2_abs="112391.868185" HC_abs="11.521298" PMx_abs="2.018025" NOx_abs="46.346142" fuel_abs="48.312578" electricity_abs="0"/>
    </tripinfo>
    <tripinfo id="h3568c1:3" depart="57656.00" departLane="266565295#5_1" departPos="5.10" departSpeed="0.00" departDelay="0.80" arrival="57749.00" arrivalLane="-24634415_1" arrivalPos="62.03" arrivalSpeed="12.75" duration="93.00" routeLength="807.40" waitingTime="6.00" waitingCount="1" stopTime="0.00" timeLoss="21.61" rerouteNo="1" devices="tripinfo_h3568c1:3 routing_h3568c1:3 emissions_h3568c1:3" vType="default_016" speedFactor="0.92" vaporized="">
        <emissions CO_abs="4781.438593" CO2_abs="245456.802438" HC_abs="27.543396" PMx_abs="4.530920" NOx_abs="102.131313" fuel_abs="105.511890" electricity_abs="0"/>
    </tripinfo>
    <tripinfo id="carIn30817:1" depart="57681.00" departLane="315358244_1" departPos="5.10" departSpeed="0.00" departDelay="0.20" arrival="57749.00" arrivalLane="447569997#1_1" arrivalPos="180.93" arrivalSpeed="8.11" duration="68.00" routeLength="718.04" waitingTime="0.00" waitingCount="0" stopTime="0.00" timeLoss="6.39" rerouteNo="1" devices="tripinfo_carIn30817:1 routing_carIn30817:1 emissions_carIn30817:1" vType="default_016" speedFactor="1.00" vaporized="">
        <emissions CO_abs="2071.407323" CO2_abs="145606.004615" HC_abs="12.799821" PMx_abs="2.308868" NOx_abs="57.528402" fuel_abs="62.590081" electricity_abs="0"/>
    </tripinfo>
    <tripinfo id="h7181c1:1" depart="57660.00" departLane="315358254#0_1" departPos="5.10" departSpeed="0.00" departDelay="0.10" arrival="57751.00" arrivalLane="306240162#0_0" arrivalPos="220.43" arrivalSpeed="16.71" duration="91.00" routeLength="932.35" waitingTime="21.00" waitingCount="2" stopTime="0.00" timeLoss="39.71" rerouteNo="1" devices="tripinfo_h7181c1:1 routing_h7181c1:1 emissions_h7181c1:1" vType="default_016" speedFactor="1.01" vaporized="">
        <emissions CO_abs="6764.158927" CO2_abs="328596.672389" HC_abs="38.635196" PMx_abs="6.710583" NOx_abs="138.599764" fuel_abs="141.249894" electricity_abs="0"/>
    </tripinfo>
    <tripinfo id="h4538c1:1" depart="57701.00" departLane="-10427692#1_1" departPos="5.10" departSpeed="0.00" departDelay="0.00" arrival="57757.00" arrivalLane="-128361102#1_1" arrivalPos="274.68" arrivalSpeed="12.85" duration="56.00" routeLength="440.74" waitingTime="14.00" waitingCount="1" stopTime="0.00" timeLoss="23.25" rerouteNo="1" devices="tripinfo_h4538c1:1 routing_h4538c1:1 emissions_h4538c1:1" vType="default_016" speedFactor="0.97" vaporized="">
        <emissions CO_abs="3674.884596" CO2_abs="142989.871452" HC_abs="20.088787" PMx_abs="2.724152" NOx_abs="59.769665" fuel_abs="61.466187" electricity_abs="0"/>
    </tripinfo>
    <tripinfo id="h3326c1:2" depart="57656.00" departLane="22716069#0_1" departPos="5.10" departSpeed="0.00" departDelay="0.00" arrival="57762.00" arrivalLane="24634517#13_1" arrivalPos="111.62" arrivalSpeed="14.26" duration="106.00" routeLength="1312.81" waitingTime="0.00" waitingCount="0" stopTime="0.00" timeLoss="14.33" rerouteNo="1" devices="tripinfo_h3326c1:2 routing_h3326c1:2 emissions_h3326c1:2" vType="default_016" speedFactor="1.06" vaporized="">
        <emissions CO_abs="4243.021292" CO2_abs="322627.281560" HC_abs="26.929977" PMx_abs="5.673393" NOx_abs="130.559019" fuel_abs="138.683214" electricity_abs="0"/>
    </tripinfo>
    <tripinfo id="carIn22761:1" depart="57616.00" departLane="-306240162#1_0" departPos="5.10" departSpeed="0.00" departDelay="2.10" arrival="57766.00" arrivalLane="399835085#1_1" arrivalPos="212.23" arrivalSpeed="7.36" duration="150.00" routeLength="1093.26" waitingTime="52.00" waitingCount="1" stopTime="0.00" timeLoss="68.03" rerouteNo="1" devices="tripinfo_carIn22761:1 routing_carIn22761:1 emissions_carIn22761:1" vType="default_016" speedFactor="0.95" vaporized="">
        <emissions CO_abs="12366.570947" CO2_abs="402977.451993" HC_abs="65.797058" PMx_abs="8.212968" NOx_abs="170.447626" fuel_abs="173.226515" electricity_abs="0"/>
    </tripinfo>
    <tripinfo id="carIn118591:1" depart="57689.00" departLane="315358244_1" departPos="5.10" departSpeed="0.00" departDelay="0.20" arrival="57771.00" arrivalLane="386687235_1" arrivalPos="80.84" arrivalSpeed="15.89" duration="82.00" routeLength="1186.14" waitingTime="0.00" waitingCount="0" stopTime="0.00" timeLoss="7.87" rerouteNo="1" devices="tripinfo_carIn118591:1 routing_carIn118591:1 emissions_carIn118591:1" vType="default_016" speedFactor="1.17" vaporized="">
        <emissions CO_abs="2649.962677" CO2_abs="249750.234715" HC_abs="17.761741" PMx_abs="4.168114" NOx_abs="97.802303" fuel_abs="107.356542" electricity_abs="0"/>
    </tripinfo>
    <tripinfo id="h330c1:1" depart="57736.00" departLane="-32978638#0_1" departPos="5.10" departSpeed="0.00" departDelay="0.20" arrival="57773.00" arrivalLane="-266565295#5_1" arrivalPos="172.76" arrivalSpeed="14.81" duration="37.00" routeLength="370.53" waitingTime="3.00" waitingCount="1" stopTime="0.00" timeLoss="11.50" rerouteNo="1" devices="tripinfo_h330c1:1 routing_h330c1:1 emissions_h330c1:1" vType="default_016" speedFactor="1.09" vaporized="">
        <emissions CO_abs="2187.304972" CO2_abs="120159.036873" HC_abs="12.825643" PMx_abs="2.394427" NOx_abs="51.012109" fuel_abs="51.651092" electricity_abs="0"/>
    </tripinfo>
    <tripinfo id="h645c1:1" depart="57622.00" departLane="266565295#5_1" departPos="5.10" departSpeed="0.00" departDelay="0.40" arrival="57775.00" arrivalLane="-315358244_1" arrivalPos="33.95" arrivalSpeed="13.56" duration="153.00" routeLength="1910.83" waitingTime="3.00" waitingCount="1" stopTime="0.00" timeLoss="19.75" rerouteNo="1" devices="tripinfo_h645c1:1 routing_h645c1:1 emissions_h645c1:1" vType="default_016" speedFactor="1.04" vaporized="">
        <emissions CO_abs="4074.384346" CO2_abs="341983.230631" HC_abs="26.490311" PMx_abs="5.607328" NOx_abs="134.979229" fuel_abs="147.003808" electricity_abs="0"/>
    </tripinfo>
    <tripinfo id="carIn27009:1" depart="57673.00" departLane="-447569998#1_1" departPos="5.10" departSpeed="0.00" departDelay="0.50" arrival="57780.00" arrivalLane="-26677539_1" arrivalPos="152.75" arrivalSpeed="7.36" duration="107.00" routeLength="699.63" waitingTime="0.00" waitingCount="0" stopTime="0.00" timeLoss="16.53" rerouteNo="1" devices="tripinfo_carIn27009:1 routing_carIn27009:1 emissions_carIn27009:1" vType="default_015" speedFactor="0.93" vaporized="">
        <emissions CO_abs="4576.281015" CO2_abs="195046.977387" HC_abs="25.313586" PMx_abs="3.229497" NOx_abs="79.757790" fuel_abs="83.843885" electricity_abs="0"/>
    </tripinfo>
    <tripinfo id="carIn48184:1" depart="57613.00" departLane="-306240162#1_0" departPos="5.10" departSpeed="0.00" departDelay="0.70" arrival="57783.00" arrivalLane="386687235_1" arrivalPos="80.84" arrivalSpeed="15.34" duration="170.00" routeLength="2257.41" waitingTime="9.00" waitingCount="2" stopTime="0.00" timeLoss="36.85" rerouteNo="1" devices="tripinfo_carIn48184:1 routing_carIn48184:1 emissions_carIn48184:1" vType="default_016" speedFactor="1.12" vaporized="">
        <emissions CO_abs="7722.962154" CO2_abs="559626.298843" HC_abs="48.428355" PMx_abs="10.443046" NOx_abs="227.043451" fuel_abs="240.558339" electricity_abs="0"/>
    </tripinfo>
    <tripinfo id="h3154c1:1" depart="57658.00" departLane="24634507_1" departPos="5.10" departSpeed="0.00" departDelay="0.00" arrival="57787.00" arrivalLane="-266565295#5_1" arrivalPos="172.76" arrivalSpeed="13.54" duration="129.00" routeLength="1206.22" waitingTime="14.00" waitingCount="3" stopTime="0.00" timeLoss="37.61" rerouteNo="1" devices="tripinfo_h3154c1:1 routing_h3154c1:1 emissions_h3154c1:1" vType="default_016" speedFactor="0.98" vaporized="">
        <emissions CO_abs="6089.739562" CO2_abs="360063.399420" HC_abs="36.199435" PMx_abs="6.470949" NOx_abs="147.791194" fuel_abs="154.776172" electricity_abs="0"/>
    </tripinfo>
    <tripinfo id="carIn12365:1" depart="57713.00" departLane="315358244_1" departPos="5.10" departSpeed="0.00" departDelay="0.50" arrival="57793.00" arrivalLane="447569997#1_1" arrivalPos="180.93" arrivalSpeed="7.63" duration="80.00" routeLength="718.04" waitingTime="3.00" waitingCount="1" stopTime="0.00" timeLoss="13.01" rerouteNo="1" devices="tripinfo_carIn12365:1 routing_carIn12365:1 emissions_carIn12365:1" vType="default_016" speedFactor="0.92" vaporized="">
        <emissions CO_abs="2783.267731" CO2_abs="163398.701331" HC_abs="16.451847" PMx_abs="2.609989" NOx_abs="65.191513" fuel_abs="70.238749" electricity_abs="0"/>
    </tripinfo>
    <tripinfo id="h11737c1:1" depart="57665.00" departLane="272042143_1" departPos="5.10" departSpeed="0.00" departDelay="1.50" arrival="57796.00" arrivalLane="-315358254#1_1" arrivalPos="137.16" arrivalSpeed="14.59" duration="131.00" routeLength="1596.88" waitingTime="10.00" waitingCount="1" stopTime="0.00" timeLoss="24.99" rerouteNo="1" devices="tripinfo_h11737c1:1 routing_h11737c1:1 emissions_h11737c1:1" vType="default_016" speedFactor="1.10" vaporized="">
        <emissions CO_abs="5174.377847" CO2_abs="354720.779566" HC_abs="31.877430" PMx_abs="6.369367" NOx_abs="143.867804" fuel_abs="152.479068" electricity_abs="0"/>
    </tripinfo>
    <tripinfo id="carIn107282:1" depart="57749.00" departLane="-447569998#1_1" departPos="5.10" departSpeed="0.00" departDelay="0.00" arrival="57798.00" arrivalLane="315358242#0_1" arrivalPos="165.37" arrivalSpeed="12.71" duration="49.00" routeLength="448.50" waitingTime="0.00" waitingCount="0" stopTime="0.00" timeLoss="5.21" rerouteNo="1" devices="tripinfo_carIn107282:1 routing_carIn107282:1 emissions_carIn107282:1" vType="default_016" speedFactor="0.95" vaporized="">
        <emissions CO_abs="2193.499772" CO2_abs="124456.410881" HC_abs="12.878785" PMx_abs="2.077106" NOx_abs="50.366243" fuel_abs="53.498885" electricity_abs="0"/>
    </tripinfo>
    <tripinfo id="carIn86816:1" depart="57617.00" departLane="128361102#0_1" departPos="5.10" departSpeed="0.00" departDelay="0.80" arrival="57799.00" arrivalLane="201956811#0_1" arrivalPos="40.40" arrivalSpeed="13.06" duration="182.00" routeLength="2067.33" waitingTime="1.00" waitingCount="1" stopTime="0.00" timeLoss="22.83" rerouteNo="1" devices="tripinfo_carIn86816:1 routing_carIn86816:1 emissions_carIn86816:1" vType="default_016" speedFactor="0.95" vaporized="">
        <emissions CO_abs="5754.936629" CO2_abs="433182.437284" HC_abs="36.340455" PMx_abs="7.161019" NOx_abs="172.891324" fuel_abs="186.206685" electricity_abs="0"/>
    </tripinfo>
    <tripinfo id="h5979c1:5" depart="57669.00" departLane="399835085#1_1" departPos="5.10" departSpeed="0.00" departDelay="0.00" arrival="57799.00" arrivalLane="-315358254#1_1" arrivalPos="137.16" arrivalSpeed="12.73" duration="130.00" routeLength="659.33" waitingTime="36.00" waitingCount="1" stopTime="0.00" timeLoss="51.97" rerouteNo="1" devices="tripinfo_h5979c1:5 routing_h5979c1:5 emissions_h5979c1:5" vType="default_016" speedFactor="0.94" vaporized="">
        <emissions CO_abs="9032.599656" CO2_abs="264221.980862" HC_abs="47.257439" PMx_abs="5.102261" NOx_abs="112.011350" fuel_abs="113.581194" electricity_abs="0"/>
    </tripinfo>
    <tripinfo id="carIn82278:1" depart="57702.00" departLane="-306240162#1_0" departPos="5.10" departSpeed="0.00" departDelay="0.70" arrival="57805.00" arrivalLane="399835085#1_1" arrivalPos="212.23" arrivalSpeed="7.29" duration="103.00" routeLength="1093.26" waitingTime="8.00" waitingCount="1" stopTime="0.00" timeLoss="23.58" rerouteNo="1" devices="tripinfo_carIn82278:1 routing_carIn82278:1 emissions_carIn82278:1" vType="default_016" speedFactor="0.99" vaporized="">
        <emissions CO_abs="4946.509927" CO2_abs="291993.960299" HC_abs="29.330993" PMx_abs="5.358634" NOx_abs="118.760400" fuel_abs="125.515976" electricity_abs="0"/>
    </tripinfo>
    <tripinfo id="carIn12858:1" depart="57661.00" departLane="128361109#1_1" departPos="5.10" departSpeed="0.00" departDelay="0.90" arrival="57810.00" arrivalLane="399835085#1_1" arrivalPos="212.23" arrivalSpeed="7.67" duration="149.00" routeLength="1738.12" waitingTime="13.00" waitingCount="1" stopTime="0.00" timeLoss="38.69" rerouteNo="1" devices="tripinfo_carIn12858:1 routing_carIn12858:1 emissions_carIn12858:1" vType="default_016" speedFactor="1.04" vaporized="">
        <emissions CO_abs="8839.297725" CO2_abs="509218.792097" HC_abs="52.454220" PMx_abs="10.083644" NOx_abs="211.872477" fuel_abs="218.890928" electricity_abs="0"/>
    </tripinfo>
    <tripinfo id="carIn82220:1" depart="57619.00" departLane="-306240162#1_0" departPos="5.10" departSpeed="0.00" departDelay="3.50" arrival="57813.00" arrivalLane="386687235_1" arrivalPos="80.84" arrivalSpeed="12.83" duration="194.00" routeLength="2257.41" waitingTime="11.00" waitingCount="2" stopTime="0.00" timeLoss="37.68" rerouteNo="1" devices="tripinfo_carIn82220:1 routing_carIn82220:1 emissions_carIn82220:1" vType="default_016" speedFactor="0.95" vaporized="">
        <emissions CO_abs="7518.814553" CO2_abs="532590.868125" HC_abs="46.577922" PMx_abs="9.165335" NOx_abs="212.801571" fuel_abs="228.938143" electricity_abs="0"/>
    </tripinfo>
    <tripinfo id="carIn31257:1" depart="57630.00" departLane="-306240162#1_0" departPos="5.10" departSpeed="0.00" departDelay="1.60" arrival="57813.00" arrivalLane="386687235_2" arrivalPos="80.84" arrivalSpeed="13.89" duration="183.00" routeLength="2257.41" waitingTime="2.00" waitingCount="1" stopTime="0.00" timeLoss="38.93" rerouteNo="1" devices="tripinfo_carIn31257:1 routing_carIn31257:1 emissions_carIn31257:1" vType="default_016" speedFactor="1.04" vaporized="">
        <emissions CO_abs="8545.639082" CO2_abs="582021.049811" HC_abs="52.759373" PMx_abs="10.991662" NOx_abs="239.294946" fuel_abs="250.184855" electricity_abs="0"/>
    </tripinfo>
    <tripinfo id="carIn129809:1" depart="57729.00" departLane="-447569998#1_1" departPos="5.10" departSpeed="0.00" departDelay="1.00" arrival="57814.00" arrivalLane="-315358244_1" arrivalPos="33.95" arrivalSpeed="11.95" duration="85.00" routeLength="706.49" waitingTime="7.00" waitingCount="1" stopTime="0.00" timeLoss="18.90" rerouteNo="1" devices="tripinfo_carIn129809:1 routing_carIn129809:1 emissions_carIn129809:1" vType="default_015" speedFactor="0.92" vaporized="">
        <emissions CO_abs="3527.723418" CO2_abs="175362.560691" HC_abs="20.148963" PMx_abs="3.065104" NOx_abs="71.922099" fuel_abs="75.381580" electricity_abs="0"/>
    </tripinfo>
    <tripinfo id="carIn462:1" depart="57622.00" departLane="-306240162#1_0" departPos="5.10" departSpeed="0.00" departDelay="4.80" arrival="57815.00" arrivalLane="386687235_1" arrivalPos="80.84" arrivalSpeed="13.37" duration="193.00" routeLength="2257.41" waitingTime="9.00" waitingCount="3" stopTime="0.00" timeLoss="44.54" rerouteNo="1" devices="tripinfo_carIn462:1 routing_carIn462:1 emissions_carIn462:1" vType="default_016" speedFactor="1.00" vaporized="">
        <emissions CO_abs="7866.213458" CO2_abs="548643.547797" HC_abs="48.821532" PMx_abs="9.976845" NOx_abs="223.577044" fuel_abs="235.837737" electricity_abs="0"/>
    </tripinfo>
    <tripinfo id="h17600c1:1" depart="57662.00" departLane="272042143_1" departPos="5.10" departSpeed="0.00" departDelay="0.30" arrival="57815.00" arrivalLane="201238729#3_1" arrivalPos="431.02" arrivalSpeed="14.16" duration="153.00" routeLength="2100.26" waitingTime="0.00" waitingCount="0" stopTime="0.00" timeLoss="11.41" rerouteNo="1" devices="tripinfo_h17600c1:1 routing_h17600c1:1 emissions_h17600c1:1" vType="default_016" speedFactor="1.07" vaporized="">
        <emissions CO_abs="3397.601999" CO2_abs="345206.338029" HC_abs="23.440920" PMx_abs="5.404595" NOx_abs="133.461864" fuel_abs="148.389174" electricity_abs="0"/>
    </tripinfo>
    <tripinfo id="carIn116184:1" depart="57627.00" departLane="-306240162#1_0" departPos="5.10" departSpeed="0.00" departDelay="0.10" arrival="57816.00" arrivalLane="386687235_2" arrivalPos="80.84" arrivalSpeed="13.08" duration="189.00" routeLength="2257.41" waitingTime="0.00" waitingCount="0" stopTime="0.00" timeLoss="38.39" rerouteNo="1" devices="tripinfo_carIn116184:1 routing_carIn116184:1 emissions_carIn116184:1" vType="default_016" speedFactor="0.99" vaporized="">
        <emissions CO_abs="7588.898049" CO2_abs="537483.148086" HC_abs="47.225493" PMx_abs="9.577145" NOx_abs="217.157460" fuel_abs="231.040626" electricity_abs="0"/>
    </tripinfo>
    <tripinfo id="carIn50326:1" depart="57651.00" departLane="128361102#0_1" departPos="5.10" departSpeed="0.00" departDelay="0.30" arrival="57816.00" arrivalLane="18809673#0_1" arrivalPos="473.56" arrivalSpeed="11.87" duration="165.00" routeLength="1591.07" waitingTime="4.00" waitingCount="1" stopTime="0.00" timeLoss="22.14" rerouteNo="1" devices="tripinfo_carIn50326:1 routing_carIn50326:1 emissions_carIn50326:1" vType="default_016" speedFactor="0.91" vaporized="">
        <emissions CO_abs="5205.269526" CO2_abs="331521.046122" HC_abs="31.397206" PMx_abs="5.361249" NOx_abs="132.487832" fuel_abs="142.507551" electricity_abs="0"/>
    </tripinfo>
    <tripinfo id="h16072c2:3" depart="57663.00" departLane="315358254#0_1" departPos="5.10" departSpeed="0.00" departDelay="2.50" arrival="57817.00" arrivalLane="386687235_1" arrivalPos="80.84" arrivalSpeed="12.98" duration="154.00" routeLength="1611.92" waitingTime="1.00" waitingCount="1" stopTime="0.00" timeLoss="34.57" rerouteNo="1" devices="tripinfo_h16072c2:3 routing_h16072c2:3 emissions_h16072c2:3" vType="default_016" speedFactor="0.98" vaporized="">
        <emissions CO_abs="5817.470668" CO2_abs="388827.188827" HC_abs="35.545425" PMx_abs="6.422606" NOx_abs="155.099580" fuel_abs="167.140819" electricity_abs="0"/>
    </tripinfo>
    <tripinfo id="carIn77943:1" depart="57608.00" departLane="124812856#0_1" departPos="5.10" departSpeed="0.00" departDelay="2.50" arrival="57818.00" arrivalLane="-128361102#1_1" arrivalPos="274.68" arrivalSpeed="12.54" duration="210.00" routeLength="2250.49" waitingTime="1.00" waitingCount="1" stopTime="0.00" timeLoss="38.46" rerouteNo="1" devices="tripinfo_carIn77943:1 routing_carIn77943:1 emissions_carIn77943:1" vType="default_016" speedFactor="0.96" vaporized="">
        <emissions CO_abs="7506.229967" CO2_abs="519366.593506" HC_abs="46.307309" PMx_abs="8.655534" NOx_abs="208.244438" fuel_abs="223.253941" electricity_abs="0"/>
    </tripinfo>
    <tripinfo id="carIn81046:1" depart="57611.00" departLane="124812856#0_1" departPos="5.10" departSpeed="0.00" departDelay="2.50" arrival="57819.00" arrivalLane="-128361102#1_1" arrivalPos="274.68" arrivalSpeed="13.05" duration="208.00" routeLength="2250.49" waitingTime="1.00" waitingCount="1" stopTime="0.00" timeLoss="40.14" rerouteNo="1" devices="tripinfo_carIn81046:1 routing_carIn81046:1 emissions_carIn81046:1" vType="default_016" speedFactor="0.98" vaporized="">
        <emissions CO_abs="7544.062090" CO2_abs="534651.402350" HC_abs="46.829826" PMx_abs="8.979695" NOx_abs="214.725531" fuel_abs="229.823982" electricity_abs="0"/>
    </tripinfo>
    <tripinfo id="h8343c1:5" depart="57679.00" departLane="315358254#0_1" departPos="5.10" departSpeed="0.00" departDelay="0.60" arrival="57820.00" arrivalLane="-24634510#5_1" arrivalPos="236.88" arrivalSpeed="15.18" duration="141.00" routeLength="2056.84" waitingTime="4.00" waitingCount="1" stopTime="0.00" timeLoss="35.45" rerouteNo="1" devices="tripinfo_h8343c1:5 routing_h8343c1:5 emissions_h8343c1:5" vType="default_016" speedFactor="1.19" vaporized="">
        <emissions CO_abs="9035.848022" CO2_abs="609186.033467" HC_abs="55.674651" PMx_abs="12.277567" NOx_abs="252.481527" fuel_abs="261.861046" electricity_abs="0"/>
    </tripinfo>
    <tripinfo id="carIn77438:1" depart="57614.00" departLane="124812856#0_1" departPos="5.10" departSpeed="0.00" departDelay="1.10" arrival="57827.00" arrivalLane="-128361102#1_1" arrivalPos="274.68" arrivalSpeed="11.47" duration="213.00" routeLength="2250.49" waitingTime="0.00" waitingCount="0" stopTime="0.00" timeLoss="28.59" rerouteNo="1" devices="tripinfo_carIn77438:1 routing_carIn77438:1 emissions_carIn77438:1" vType="default_016" speedFactor="0.89" vaporized="">
        <emissions CO_abs="6235.902312" CO2_abs="464731.400522" HC_abs="39.177469" PMx_abs="7.267542" NOx_abs="183.414641" fuel_abs="199.768864" electricity_abs="0"/>
    </tripinfo>
    <tripinfo id="carIn126288:1" depart="57674.00" departLane="272042143_1" departPos="5.10" departSpeed="0.00" departDelay="0.00" arrival="57828.00" arrivalLane="-315358254#1_1" arrivalPos="137.16" arrivalSpeed="11.53" duration="154.00" routeLength="1596.88" waitingTime="7.00" waitingCount="1" stopTime="0.00" timeLoss="22.70" rerouteNo="1" devices="tripinfo_carIn126288:1 routing_carIn126288:1 emissions_carIn126288:1" vType="default_016" speedFactor="0.89" vaporized="">
        <emissions CO_abs="5026.420782" CO2_abs="338605.633248" HC_abs="30.761853" PMx_abs="5.469514" NOx_abs="134.819391" fuel_abs="145.552739" electricity_abs="0"/>
    </tripinfo>
    <tripinfo id="carIn81860:1" depart="57712.00" departLane="128361102#0_1" departPos="5.10" departSpeed="0.00" departDelay="0.60" arrival="57828.00" arrivalLane="-24634517#17_1" arrivalPos="6.43" arrivalSpeed="6.55" duration="116.00" routeLength="1229.64" waitingTime="5.00" waitingCount="1" stopTime="0.00" timeLoss="20.98" rerouteNo="1" devices="tripinfo_carIn81860:1 routing_carIn81860:1 emissions_carIn81860:1" vType="default_016" speedFactor="0.95" vaporized="">
        <emissions CO_abs="3560.758396" CO2_abs="260589.752777" HC_abs="22.265634" PMx_abs="4.114099" NOx_abs="102.816820" fuel_abs="112.016812" electricity_abs="0"/>
    </tripinfo>
    <tripinfo id="h19804c1:3" depart="57617.00" departLane="124812856#0_1" departPos="5.10" departSpeed="0.00" departDelay="1.50" arrival="57829.00" arrivalLane="-128361102#1_1" arrivalPos="274.68" arrivalSpeed="12.82" duration="212.00" routeLength="2250.49" waitingTime="0.00" waitingCount="0" stopTime="0.00" timeLoss="49.58" rerouteNo="1" devices="tripinfo_h19804c1:3 routing_h19804c1:3 emissions_h19804c1:3" vType="default_016" speedFactor="1.02" vaporized="">
        <emissions CO_abs="7411.515219" CO2_abs="516618.791725" HC_abs="45.843689" PMx_abs="8.762409" NOx_abs="208.836832" fuel_abs="222.072424" electricity_abs="0"/>
    </tripinfo>