<?xml version="1.0" encoding="UTF-8"?>

<!-- generated on 2021-10-26 11:43:37 by Eclipse SUMO sumo Version 1.10.0
<configuration xmlns:xsi="http://www.w3.org/2001/XMLSchema-instance" xsi:noNamespaceSchemaLocation="http://sumo.dlr.de/xsd/sumoConfiguration.xsd">

    <input>
        <net-file value="/Users/behradkoohy/sumo-scratchpad/RESCO/environments/ingolstadt21/ingolstadt21.net.xml"/>
        <route-files value="/Users/behradkoohy/sumo-scratchpad/RESCO/environments/ingolstadt21/ingolstadt21.rou.xml"/>
    </input>

    <output>
        <tripinfo-output value="/Users/behradkoohy/sumo-scratchpad/RESCO/logs/MAXWAVE-tr0-ingolstadt21-21-wave-wait/tripinfo_30.xml"/>
        <tripinfo-output.write-unfinished value="true"/>
    </output>

    <time>
        <begin value="57600"/>
        <end value="61200"/>
    </time>

    <processing>
        <time-to-teleport value="-1"/>
    </processing>

    <report>
        <no-warnings value="true"/>
        <no-step-log value="true"/>
    </report>

    <emissions>
        <device.emissions.probability value="1"/>
    </emissions>

    <traci_server>
        <remote-port value="57499"/>
    </traci_server>

    <random_number>
        <random value="true"/>
    </random_number>

</configuration>
-->

<tripinfos xmlns:xsi="http://www.w3.org/2001/XMLSchema-instance" xsi:noNamespaceSchemaLocation="http://sumo.dlr.de/xsd/tripinfo_file.xsd">
    <tripinfo id="h15454c2:3" depart="57612.00" departLane="24608844_1" departPos="5.10" departSpeed="0.00" departDelay="0.50" arrival="57650.00" arrivalLane="32978638#0_1" arrivalPos="49.29" arrivalSpeed="14.49" duration="38.00" routeLength="354.79" waitingTime="0.00" waitingCount="0" stopTime="0.00" timeLoss="6.51" rerouteNo="1" devices="tripinfo_h15454c2:3 routing_h15454c2:3 emissions_h15454c2:3" vType="default_016" speedFactor="1.08" vaporized="">
        <emissions CO_abs="2254.117515" CO2_abs="125270.861628" HC_abs="13.224188" PMx_abs="2.364346" NOx_abs="52.524785" fuel_abs="53.848600" electricity_abs="0"/>
    </tripinfo>
    <tripinfo id="carIn60260:1" depart="57606.00" departLane="315358254#0_1" departPos="5.10" departSpeed="0.00" departDelay="0.90" arrival="57669.00" arrivalLane="399835085#1_1" arrivalPos="212.23" arrivalSpeed="6.42" duration="63.00" routeLength="430.98" waitingTime="0.00" waitingCount="0" stopTime="0.00" timeLoss="7.23" rerouteNo="1" devices="tripinfo_carIn60260:1 routing_carIn60260:1 emissions_carIn60260:1" vType="default_016" speedFactor="0.83" vaporized="">
        <emissions CO_abs="2814.204340" CO2_abs="120939.714206" HC_abs="15.595823" PMx_abs="2.025051" NOx_abs="49.519070" fuel_abs="51.987714" electricity_abs="0"/>
    </tripinfo>
    <tripinfo id="carIn53971:1" depart="57640.00" departLane="272042143_1" departPos="5.10" departSpeed="0.00" departDelay="0.80" arrival="57692.00" arrivalLane="24634414#1_1" arrivalPos="162.19" arrivalSpeed="8.44" duration="52.00" routeLength="493.04" waitingTime="0.00" waitingCount="0" stopTime="0.00" timeLoss="7.68" rerouteNo="1" devices="tripinfo_carIn53971:1 routing_carIn53971:1 emissions_carIn53971:1" vType="default_016" speedFactor="1.04" vaporized="">
        <emissions CO_abs="2306.130603" CO2_abs="128273.769247" HC_abs="13.513992" PMx_abs="2.329926" NOx_abs="53.227046" fuel_abs="55.139556" electricity_abs="0"/>
    </tripinfo>
    <tripinfo id="S5R_frequency1.2" depart="57616.00" departLane="315358250#0_1" departPos="12.10" departSpeed="0.00" departDelay="4.40" arrival="57709.00" arrivalLane="386687235_1" arrivalPos="80.84" arrivalSpeed="13.80" duration="93.00" routeLength="1115.62" waitingTime="0.00" waitingCount="0" stopTime="0.00" timeLoss="10.71" rerouteNo="1" devices="tripinfo_S5R_frequency1.2 routing_S5R_frequency1.2 emissions_S5R_frequency1.2" vType="bus" speedFactor="1.00" vaporized="">
        <emissions CO_abs="1704.319390" CO2_abs="1083956.199852" HC_abs="359.353884" PMx_abs="183.131263" NOx_abs="8365.882368" fuel_abs="462.301699" electricity_abs="0"/>
    </tripinfo>
    <tripinfo id="h12244c1:3" depart="57612.00" departLane="315358244_1" departPos="5.10" departSpeed="0.00" departDelay="0.40" arrival="57713.00" arrivalLane="386687235_1" arrivalPos="80.84" arrivalSpeed="13.01" duration="101.00" routeLength="1186.14" waitingTime="0.00" waitingCount="0" stopTime="0.00" timeLoss="9.03" rerouteNo="1" devices="tripinfo_h12244c1:3 routing_h12244c1:3 emissions_h12244c1:3" vType="default_016" speedFactor="0.95" vaporized="">
        <emissions CO_abs="2683.789907" CO2_abs="225435.372427" HC_abs="17.463172" PMx_abs="3.514489" NOx_abs="88.288871" fuel_abs="96.905157" electricity_abs="0"/>
    </tripinfo>
    <tripinfo id="h9563c2:5" depart="57631.00" departLane="315358244_1" departPos="5.10" departSpeed="0.00" departDelay="0.70" arrival="57719.00" arrivalLane="386687235_1" arrivalPos="80.84" arrivalSpeed="14.03" duration="88.00" routeLength="1186.14" waitingTime="0.00" waitingCount="0" stopTime="0.00" timeLoss="8.19" rerouteNo="1" devices="tripinfo_h9563c2:5 routing_h9563c2:5 emissions_h9563c2:5" vType="default_016" speedFactor="1.09" vaporized="">
        <emissions CO_abs="2441.020570" CO2_abs="234165.541756" HC_abs="16.501973" PMx_abs="3.694234" NOx_abs="90.888438" fuel_abs="100.657622" electricity_abs="0"/>
    </tripinfo>
    <tripinfo id="h7800c1:5" depart="57696.00" departLane="-447569998#1_1" departPos="5.10" departSpeed="0.00" departDelay="0.00" arrival="57720.00" arrivalLane="-447569998#1_1" arrivalPos="180.76" arrivalSpeed="7.85" duration="24.00" routeLength="175.66" waitingTime="0.00" waitingCount="0" stopTime="0.00" timeLoss="3.54" rerouteNo="1" devices="tripinfo_h7800c1:5 routing_h7800c1:5 emissions_h7800c1:5" vType="default_016" speedFactor="1.05" vaporized="">
        <emissions CO_abs="1170.055671" CO2_abs="52756.048351" HC_abs="6.538955" PMx_abs="0.861002" NOx_abs="21.430906" fuel_abs="22.677951" electricity_abs="0"/>
    </tripinfo>
    <tripinfo id="carIn80064:1" depart="57603.00" departLane="128361109#1_1" departPos="5.10" departSpeed="0.00" departDelay="0.40" arrival="57727.00" arrivalLane="-315358254#1_1" arrivalPos="137.16" arrivalSpeed="12.14" duration="124.00" routeLength="1587.97" waitingTime="3.00" waitingCount="1" stopTime="0.00" timeLoss="24.76" rerouteNo="1" devices="tripinfo_carIn80064:1 routing_carIn80064:1 emissions_carIn80064:1" vType="default_016" speedFactor="0.90" vaporized="">
        <emissions CO_abs="5702.585610" CO2_abs="405040.232400" HC_abs="35.554679" PMx_abs="7.658405" NOx_abs="166.068165" fuel_abs="174.108525" electricity_abs="0"/>
    </tripinfo>
    <tripinfo id="h3688c1:1" depart="57625.00" departLane="201201950#1_1" departPos="5.10" departSpeed="0.00" departDelay="0.00" arrival="57735.00" arrivalLane="32978638#0_1" arrivalPos="49.29" arrivalSpeed="11.49" duration="110.00" routeLength="1089.75" waitingTime="5.00" waitingCount="1" stopTime="0.00" timeLoss="21.72" rerouteNo="1" devices="tripinfo_h3688c1:1 routing_h3688c1:1 emissions_h3688c1:1" vType="default_016" speedFactor="0.91" vaporized="">
        <emissions CO_abs="4204.765908" CO2_abs="263150.384307" HC_abs="25.303003" PMx_abs="4.515858" NOx_abs="106.808235" fuel_abs="113.117424" electricity_abs="0"/>
    </tripinfo>
    <tripinfo id="h3568c1:3" depart="57656.00" departLane="266565295#5_1" departPos="5.10" departSpeed="0.00" departDelay="0.80" arrival="57735.00" arrivalLane="-24634415_1" arrivalPos="62.03" arrivalSpeed="12.70" duration="79.00" routeLength="807.40" waitingTime="0.00" waitingCount="0" stopTime="0.00" timeLoss="12.78" rerouteNo="1" devices="tripinfo_h3568c1:3 routing_h3568c1:3 emissions_h3568c1:3" vType="default_016" speedFactor="0.99" vaporized="">
        <emissions CO_abs="3275.326595" CO2_abs="213931.615249" HC_abs="19.910504" PMx_abs="3.718597" NOx_abs="86.970998" fuel_abs="91.960137" electricity_abs="0"/>
    </tripinfo>
    <tripinfo id="carIn22761:1" depart="57616.00" departLane="-306240162#1_0" departPos="5.10" departSpeed="0.00" departDelay="2.10" arrival="57742.00" arrivalLane="399835085#1_1" arrivalPos="212.23" arrivalSpeed="8.70" duration="126.00" routeLength="1093.26" waitingTime="36.00" waitingCount="1" stopTime="0.00" timeLoss="51.54" rerouteNo="1" devices="tripinfo_carIn22761:1 routing_carIn22761:1 emissions_carIn22761:1" vType="default_016" speedFactor="1.05" vaporized="">
        <emissions CO_abs="9962.969468" CO2_abs="379571.744930" HC_abs="54.385027" PMx_abs="7.695007" NOx_abs="159.733678" fuel_abs="163.163869" electricity_abs="0"/>
    </tripinfo>
    <tripinfo id="h317c2:1" depart="57707.00" departLane="-32978638#0_1" departPos="5.10" departSpeed="0.00" departDelay="0.10" arrival="57744.00" arrivalLane="-266565295#5_1" arrivalPos="172.76" arrivalSpeed="13.78" duration="37.00" routeLength="370.53" waitingTime="1.00" waitingCount="1" stopTime="0.00" timeLoss="11.70" rerouteNo="1" devices="tripinfo_h317c2:1 routing_h317c2:1 emissions_h317c2:1" vType="default_016" speedFactor="1.08" vaporized="">
        <emissions CO_abs="2212.607686" CO2_abs="129968.179222" HC_abs="13.113678" PMx_abs="2.425660" NOx_abs="53.868208" fuel_abs="55.867750" electricity_abs="0"/>
    </tripinfo>
    <tripinfo id="carIn30817:1" depart="57681.00" departLane="315358244_1" departPos="5.10" departSpeed="0.00" departDelay="0.20" arrival="57750.00" arrivalLane="447569997#1_1" arrivalPos="180.93" arrivalSpeed="7.77" duration="69.00" routeLength="718.04" waitingTime="0.00" waitingCount="0" stopTime="0.00" timeLoss="7.56" rerouteNo="1" devices="tripinfo_carIn30817:1 routing_carIn30817:1 emissions_carIn30817:1" vType="default_016" speedFactor="1.01" vaporized="">
        <emissions CO_abs="2277.531870" CO2_abs="156319.786200" HC_abs="13.961192" PMx_abs="2.334202" NOx_abs="60.820269" fuel_abs="67.195767" electricity_abs="0"/>
    </tripinfo>
    <tripinfo id="h7181c1:1" depart="57660.00" departLane="315358254#0_1" departPos="5.10" departSpeed="0.00" departDelay="0.10" arrival="57754.00" arrivalLane="306240162#0_0" arrivalPos="220.43" arrivalSpeed="13.43" duration="94.00" routeLength="932.35" waitingTime="15.00" waitingCount="2" stopTime="0.00" timeLoss="31.49" rerouteNo="1" devices="tripinfo_h7181c1:1 routing_h7181c1:1 emissions_h7181c1:1" vType="default_016" speedFactor="0.83" vaporized="">
        <emissions CO_abs="5261.753072" CO2_abs="272295.678306" HC_abs="30.424368" PMx_abs="5.260174" NOx_abs="113.722899" fuel_abs="117.048550" electricity_abs="0"/>
    </tripinfo>
    <tripinfo id="h4538c1:1" depart="57701.00" departLane="-10427692#1_1" departPos="5.10" departSpeed="0.00" departDelay="0.00" arrival="57756.00" arrivalLane="-128361102#1_1" arrivalPos="274.68" arrivalSpeed="13.34" duration="55.00" routeLength="440.74" waitingTime="14.00" waitingCount="1" stopTime="0.00" timeLoss="23.54" rerouteNo="1" devices="tripinfo_h4538c1:1 routing_h4538c1:1 emissions_h4538c1:1" vType="default_016" speedFactor="1.01" vaporized="">
        <emissions CO_abs="3605.661711" CO2_abs="145701.233751" HC_abs="19.830978" PMx_abs="2.728039" NOx_abs="60.435300" fuel_abs="62.631674" electricity_abs="0"/>
    </tripinfo>
    <tripinfo id="h3326c1:2" depart="57656.00" departLane="22716069#0_1" departPos="5.10" departSpeed="0.00" departDelay="0.00" arrival="57757.00" arrivalLane="24634517#13_1" arrivalPos="111.62" arrivalSpeed="16.31" duration="101.00" routeLength="1312.81" waitingTime="1.00" waitingCount="1" stopTime="0.00" timeLoss="18.34" rerouteNo="1" devices="tripinfo_h3326c1:2 routing_h3326c1:2 emissions_h3326c1:2" vType="default_016" speedFactor="1.19" vaporized="">
        <emissions CO_abs="4644.333408" CO2_abs="344671.296615" HC_abs="29.115347" PMx_abs="6.330623" NOx_abs="140.504599" fuel_abs="148.158678" electricity_abs="0"/>
    </tripinfo>
    <tripinfo id="h5979c1:5" depart="57669.00" departLane="399835085#1_1" departPos="5.10" departSpeed="0.00" departDelay="0.00" arrival="57762.00" arrivalLane="-315358254#1_1" arrivalPos="137.16" arrivalSpeed="12.25" duration="93.00" routeLength="659.33" waitingTime="2.00" waitingCount="1" stopTime="0.00" timeLoss="17.39" rerouteNo="1" devices="tripinfo_h5979c1:5 routing_h5979c1:5 emissions_h5979c1:5" vType="default_016" speedFactor="0.97" vaporized="">
        <emissions CO_abs="3587.868760" CO2_abs="162129.362588" HC_abs="20.082710" PMx_abs="2.759723" NOx_abs="66.515732" fuel_abs="69.693480" electricity_abs="0"/>
    </tripinfo>
    <tripinfo id="h3154c1:1" depart="57658.00" departLane="24634507_1" departPos="5.10" departSpeed="0.00" departDelay="0.00" arrival="57765.00" arrivalLane="-266565295#5_1" arrivalPos="172.76" arrivalSpeed="14.81" duration="107.00" routeLength="1206.22" waitingTime="4.00" waitingCount="2" stopTime="0.00" timeLoss="24.76" rerouteNo="1" devices="tripinfo_h3154c1:1 routing_h3154c1:1 emissions_h3154c1:1" vType="default_016" speedFactor="1.08" vaporized="">
        <emissions CO_abs="4929.716564" CO2_abs="338385.638981" HC_abs="30.338827" PMx_abs="6.076755" NOx_abs="137.964934" fuel_abs="145.457213" electricity_abs="0"/>
    </tripinfo>
    <tripinfo id="carIn27009:1" depart="57673.00" departLane="-447569998#1_1" departPos="5.10" departSpeed="0.00" departDelay="0.50" arrival="57768.00" arrivalLane="-26677539_1" arrivalPos="152.75" arrivalSpeed="8.33" duration="95.00" routeLength="699.63" waitingTime="5.00" waitingCount="1" stopTime="0.00" timeLoss="19.81" rerouteNo="1" devices="tripinfo_carIn27009:1 routing_carIn27009:1 emissions_carIn27009:1" vType="default_015" speedFactor="1.11" vaporized="">
        <emissions CO_abs="4037.743307" CO2_abs="195774.798406" HC_abs="22.914377" PMx_abs="3.314945" NOx_abs="80.187954" fuel_abs="84.156198" electricity_abs="0"/>
    </tripinfo>
    <tripinfo id="carIn28951:1" depart="57606.00" departLane="10425609#0_1" departPos="5.10" departSpeed="0.00" departDelay="0.20" arrival="57774.00" arrivalLane="-128361102#1_1" arrivalPos="274.68" arrivalSpeed="14.27" duration="168.00" routeLength="2113.04" waitingTime="0.00" waitingCount="0" stopTime="0.00" timeLoss="23.29" rerouteNo="1" devices="tripinfo_carIn28951:1 routing_carIn28951:1 emissions_carIn28951:1" vType="default_016" speedFactor="1.07" vaporized="">
        <emissions CO_abs="5887.711118" CO2_abs="467505.193790" HC_abs="37.687765" PMx_abs="8.010463" NOx_abs="187.236295" fuel_abs="200.959964" electricity_abs="0"/>
    </tripinfo>
    <tripinfo id="h330c1:1" depart="57736.00" departLane="-32978638#0_1" departPos="5.10" departSpeed="0.00" departDelay="0.20" arrival="57776.00" arrivalLane="-266565295#5_1" arrivalPos="172.76" arrivalSpeed="11.83" duration="40.00" routeLength="370.53" waitingTime="3.00" waitingCount="1" stopTime="0.00" timeLoss="10.73" rerouteNo="1" devices="tripinfo_h330c1:1 routing_h330c1:1 emissions_h330c1:1" vType="default_016" speedFactor="0.93" vaporized="">
        <emissions CO_abs="1985.749938" CO2_abs="114294.360155" HC_abs="11.723708" PMx_abs="2.033123" NOx_abs="46.944393" fuel_abs="49.130417" electricity_abs="0"/>
    </tripinfo>
    <tripinfo id="carIn12365:1" depart="57713.00" departLane="315358244_1" departPos="5.10" departSpeed="0.00" departDelay="0.50" arrival="57777.00" arrivalLane="447569997#1_1" arrivalPos="180.93" arrivalSpeed="8.84" duration="64.00" routeLength="718.04" waitingTime="0.00" waitingCount="0" stopTime="0.00" timeLoss="6.59" rerouteNo="1" devices="tripinfo_carIn12365:1 routing_carIn12365:1 emissions_carIn12365:1" vType="default_016" speedFactor="1.08" vaporized="">
        <emissions CO_abs="2111.919395" CO2_abs="153387.420110" HC_abs="13.161604" PMx_abs="2.414700" NOx_abs="60.276423" fuel_abs="65.934982" electricity_abs="0"/>
    </tripinfo>
    <tripinfo id="h645c1:1" depart="57622.00" departLane="266565295#5_1" departPos="5.10" departSpeed="0.00" departDelay="0.40" arrival="57782.00" arrivalLane="-315358244_1" arrivalPos="33.95" arrivalSpeed="12.30" duration="160.00" routeLength="1910.83" waitingTime="0.00" waitingCount="0" stopTime="0.00" timeLoss="11.54" rerouteNo="1" devices="tripinfo_h645c1:1 routing_h645c1:1 emissions_h645c1:1" vType="default_016" speedFactor="0.94" vaporized="">
        <emissions CO_abs="3729.259989" CO2_abs="339774.485871" HC_abs="24.858744" PMx_abs="5.082883" NOx_abs="131.374256" fuel_abs="146.054809" electricity_abs="0"/>
    </tripinfo>
    <tripinfo id="carIn48184:1" depart="57613.00" departLane="-306240162#1_0" departPos="5.10" departSpeed="0.00" departDelay="0.70" arrival="57783.00" arrivalLane="386687235_1" arrivalPos="80.84" arrivalSpeed="14.04" duration="170.00" routeLength="2257.41" waitingTime="4.00" waitingCount="1" stopTime="0.00" timeLoss="29.97" rerouteNo="1" devices="tripinfo_carIn48184:1 routing_carIn48184:1 emissions_carIn48184:1" vType="default_016" speedFactor="1.06" vaporized="">
        <emissions CO_abs="7150.519182" CO2_abs="553251.597844" HC_abs="45.594721" PMx_abs="10.024916" NOx_abs="223.550177" fuel_abs="237.818072" electricity_abs="0"/>
    </tripinfo>
    <tripinfo id="h11737c1:1" depart="57665.00" departLane="272042143_1" departPos="5.10" departSpeed="0.00" departDelay="1.50" arrival="57796.00" arrivalLane="-315358254#1_1" arrivalPos="137.16" arrivalSpeed="15.23" duration="131.00" routeLength="1596.88" waitingTime="10.00" waitingCount="1" stopTime="0.00" timeLoss="27.50" rerouteNo="1" devices="tripinfo_h11737c1:1 routing_h11737c1:1 emissions_h11737c1:1" vType="default_016" speedFactor="1.12" vaporized="">
        <emissions CO_abs="5326.999003" CO2_abs="378893.899967" HC_abs="32.914485" PMx_abs="6.632444" NOx_abs="151.868813" fuel_abs="162.870167" electricity_abs="0"/>
    </tripinfo>
    <tripinfo id="carIn107282:1" depart="57749.00" departLane="-447569998#1_1" departPos="5.10" departSpeed="0.00" departDelay="0.00" arrival="57796.00" arrivalLane="315358242#0_1" arrivalPos="165.37" arrivalSpeed="13.64" duration="47.00" routeLength="448.50" waitingTime="0.00" waitingCount="0" stopTime="0.00" timeLoss="5.15" rerouteNo="1" devices="tripinfo_carIn107282:1 routing_carIn107282:1 emissions_carIn107282:1" vType="default_016" speedFactor="1.00" vaporized="">
        <emissions CO_abs="1783.430954" CO2_abs="114097.910376" HC_abs="10.757407" PMx_abs="1.794283" NOx_abs="45.137097" fuel_abs="49.046182" electricity_abs="0"/>
    </tripinfo>
    <tripinfo id="carIn118591:1" depart="57689.00" departLane="315358244_1" departPos="5.10" departSpeed="0.00" departDelay="0.20" arrival="57797.00" arrivalLane="386687235_1" arrivalPos="80.84" arrivalSpeed="12.83" duration="108.00" routeLength="1186.14" waitingTime="3.00" waitingCount="2" stopTime="0.00" timeLoss="16.72" rerouteNo="1" devices="tripinfo_carIn118591:1 routing_carIn118591:1 emissions_carIn118591:1" vType="default_016" speedFactor="0.95" vaporized="">
        <emissions CO_abs="3565.948908" CO2_abs="250682.422948" HC_abs="22.068799" PMx_abs="3.994645" NOx_abs="98.956341" fuel_abs="107.758143" electricity_abs="0"/>
    </tripinfo>
    <tripinfo id="carIn86816:1" depart="57617.00" departLane="128361102#0_1" departPos="5.10" departSpeed="0.00" departDelay="0.80" arrival="57799.00" arrivalLane="201956811#0_1" arrivalPos="40.40" arrivalSpeed="13.05" duration="182.00" routeLength="2067.33" waitingTime="4.00" waitingCount="1" stopTime="0.00" timeLoss="25.17" rerouteNo="1" devices="tripinfo_carIn86816:1 routing_carIn86816:1 emissions_carIn86816:1" vType="default_016" speedFactor="0.96" vaporized="">
        <emissions CO_abs="5541.655868" CO2_abs="431638.011917" HC_abs="35.294705" PMx_abs="6.932191" NOx_abs="170.636823" fuel_abs="185.542979" electricity_abs="0"/>
    </tripinfo>
    <tripinfo id="carIn102915:1" depart="57643.00" departLane="128361102#0_1" departPos="5.10" departSpeed="0.00" departDelay="0.40" arrival="57802.00" arrivalLane="201956811#0_1" arrivalPos="40.40" arrivalSpeed="14.96" duration="159.00" routeLength="2067.33" waitingTime="0.00" waitingCount="0" stopTime="0.00" timeLoss="19.06" rerouteNo="1" devices="tripinfo_carIn102915:1 routing_carIn102915:1 emissions_carIn102915:1" vType="default_016" speedFactor="1.08" vaporized="">
        <emissions CO_abs="5305.586437" CO2_abs="452047.701664" HC_abs="34.595832" PMx_abs="7.503970" NOx_abs="178.877179" fuel_abs="194.315557" electricity_abs="0"/>
    </tripinfo>
    <tripinfo id="carIn107084:1" depart="57601.00" departLane="124812856#0_1" departPos="5.10" departSpeed="0.00" departDelay="0.70" arrival="57805.00" arrivalLane="-128361102#1_1" arrivalPos="274.68" arrivalSpeed="12.06" duration="204.00" routeLength="2250.49" waitingTime="3.00" waitingCount="1" stopTime="0.00" timeLoss="25.23" rerouteNo="1" devices="tripinfo_carIn107084:1 routing_carIn107084:1 emissions_carIn107084:1" vType="default_016" speedFactor="0.92" vaporized="">
        <emissions CO_abs="5995.857395" CO2_abs="456810.573327" HC_abs="37.943042" PMx_abs="7.307433" NOx_abs="180.902962" fuel_abs="196.363708" electricity_abs="0"/>
    </tripinfo>
    <tripinfo id="randUni33724:1" depart="57646.00" departLane="128361102#0_1" departPos="5.10" departSpeed="0.00" departDelay="1.20" arrival="57805.00" arrivalLane="201956811#0_1" arrivalPos="40.40" arrivalSpeed="14.39" duration="159.00" routeLength="2067.33" waitingTime="0.00" waitingCount="0" stopTime="0.00" timeLoss="19.12" rerouteNo="1" devices="tripinfo_randUni33724:1 routing_randUni33724:1 emissions_randUni33724:1" vType="random_016" speedFactor="1.09" vaporized="">
        <emissions CO_abs="5182.202189" CO2_abs="436972.281076" HC_abs="33.808823" PMx_abs="7.484199" NOx_abs="174.581096" fuel_abs="187.834983" electricity_abs="0"/>
    </tripinfo>
    <tripinfo id="carIn77943:1" depart="57608.00" departLane="124812856#0_1" departPos="5.10" departSpeed="0.00" departDelay="2.50" arrival="57806.00" arrivalLane="-128361102#1_1" arrivalPos="274.68" arrivalSpeed="13.67" duration="198.00" routeLength="2250.49" waitingTime="0.00" waitingCount="0" stopTime="0.00" timeLoss="43.26" rerouteNo="1" devices="tripinfo_carIn77943:1 routing_carIn77943:1 emissions_carIn77943:1" vType="default_016" speedFactor="1.06" vaporized="">
        <emissions CO_abs="7994.479269" CO2_abs="558817.847201" HC_abs="49.514699" PMx_abs="9.997232" NOx_abs="228.556260" fuel_abs="240.211246" electricity_abs="0"/>
    </tripinfo>
    <tripinfo id="carIn81046:1" depart="57611.00" departLane="124812856#0_1" departPos="5.10" departSpeed="0.00" departDelay="2.50" arrival="57808.00" arrivalLane="-128361102#1_1" arrivalPos="274.68" arrivalSpeed="13.95" duration="197.00" routeLength="2250.49" waitingTime="0.00" waitingCount="0" stopTime="0.00" timeLoss="33.44" rerouteNo="1" devices="tripinfo_carIn81046:1 routing_carIn81046:1 emissions_carIn81046:1" vType="default_016" speedFactor="1.01" vaporized="">
        <emissions CO_abs="7441.074493" CO2_abs="543451.199681" HC_abs="46.646878" PMx_abs="9.459024" NOx_abs="220.333729" fuel_abs="233.605950" electricity_abs="0"/>
    </tripinfo>
    <tripinfo id="carIn77438:1" depart="57614.00" departLane="124812856#0_1" departPos="5.10" departSpeed="0.00" departDelay="1.10" arrival="57810.00" arrivalLane="-128361102#1_1" arrivalPos="274.68" arrivalSpeed="14.47" duration="196.00" routeLength="2250.49" waitingTime="0.00" waitingCount="0" stopTime="0.00" timeLoss="46.13" rerouteNo="1" devices="tripinfo_carIn77438:1 routing_carIn77438:1 emissions_carIn77438:1" vType="default_016" speedFactor="1.10" vaporized="">
        <emissions CO_abs="8245.673620" CO2_abs="585560.781727" HC_abs="51.371357" PMx_abs="10.583105" NOx_abs="240.197898" fuel_abs="251.706593" electricity_abs="0"/>
    </tripinfo>
    <tripinfo id="h19804c1:3" depart="57617.00" departLane="124812856#0_1" departPos="5.10" departSpeed="0.00" departDelay="1.50" arrival="57811.00" arrivalLane="-128361102#1_1" arrivalPos="274.68" arrivalSpeed="13.73" duration="194.00" routeLength="2250.49" waitingTime="0.00" waitingCount="0" stopTime="0.00" timeLoss="29.81" rerouteNo="1" devices="tripinfo_h19804c1:3 routing_h19804c1:3 emissions_h19804c1:3" vType="default_016" speedFactor="1.00" vaporized="">
        <emissions CO_abs="6723.434823" CO2_abs="499977.830670" HC_abs="42.365820" PMx_abs="8.583421" NOx_abs="201.852663" fuel_abs="214.918737" electricity_abs="0"/>
    </tripinfo>
    <tripinfo id="carIn116184:1" depart="57627.00" departLane="-306240162#1_0" departPos="5.10" departSpeed="0.00" departDelay="0.10" arrival="57813.00" arrivalLane="386687235_2" arrivalPos="80.84" arrivalSpeed="12.97" duration="186.00" routeLength="2257.41" waitingTime="0.00" waitingCount="0" stopTime="0.00" timeLoss="36.61" rerouteNo="1" devices="tripinfo_carIn116184:1 routing_carIn116184:1 emissions_carIn116184:1" vType="default_016" speedFactor="0.99" vaporized="">
        <emissions CO_abs="7261.212739" CO2_abs="526979.271296" HC_abs="45.540793" PMx_abs="9.432517" NOx_abs="213.599766" fuel_abs="226.525214" electricity_abs="0"/>
    </tripinfo>
    <tripinfo id="carIn82220:1" depart="57619.00" departLane="-306240162#1_0" departPos="5.10" departSpeed="0.00" departDelay="3.50" arrival="57814.00" arrivalLane="386687235_1" arrivalPos="80.84" arrivalSpeed="12.99" duration="195.00" routeLength="2257.41" waitingTime="16.00" waitingCount="2" stopTime="0.00" timeLoss="41.72" rerouteNo="1" devices="tripinfo_carIn82220:1 routing_carIn82220:1 emissions_carIn82220:1" vType="default_016" speedFactor="0.97" vaporized="">
        <emissions CO_abs="7445.591148" CO2_abs="504598.988957" HC_abs="45.751978" PMx_abs="8.801230" NOx_abs="202.282427" fuel_abs="216.905758" electricity_abs="0"/>
    </tripinfo>
    <tripinfo id="carIn82278:1" depart="57702.00" departLane="-306240162#1_0" departPos="5.10" departSpeed="0.00" departDelay="0.70" arrival="57814.00" arrivalLane="399835085#1_1" arrivalPos="212.23" arrivalSpeed="7.22" duration="112.00" routeLength="1093.26" waitingTime="17.00" waitingCount="1" stopTime="0.00" timeLoss="33.69" rerouteNo="1" devices="tripinfo_carIn82278:1 routing_carIn82278:1 emissions_carIn82278:1" vType="default_016" speedFactor="0.99" vaporized="">
        <emissions CO_abs="6442.098161" CO2_abs="302726.750190" HC_abs="36.517196" PMx_abs="5.861712" NOx_abs="125.785861" fuel_abs="130.130161" electricity_abs="0"/>
    </tripinfo>
    <tripinfo id="carIn31257:1" depart="57630.00" departLane="-306240162#1_0" departPos="5.10" departSpeed="0.00" departDelay="1.60" arrival="57815.00" arrivalLane="386687235_2" arrivalPos="80.84" arrivalSpeed="14.70" duration="185.00" routeLength="2257.41" waitingTime="4.00" waitingCount="1" stopTime="0.00" timeLoss="45.16" rerouteNo="1" devices="tripinfo_carIn31257:1 routing_carIn31257:1 emissions_carIn31257:1" vType="default_016" speedFactor="1.06" vaporized="">
        <emissions CO_abs="7847.320500" CO2_abs="568443.420388" HC_abs="49.180503" PMx_abs="10.320872" NOx_abs="231.043550" fuel_abs="244.348642" electricity_abs="0"/>
    </tripinfo>
    <tripinfo id="carIn462:1" depart="57622.00" departLane="-306240162#1_0" departPos="5.10" departSpeed="0.00" departDelay="4.80" arrival="57816.00" arrivalLane="386687235_1" arrivalPos="80.84" arrivalSpeed="12.38" duration="194.00" routeLength="2257.41" waitingTime="3.00" waitingCount="1" stopTime="0.00" timeLoss="28.81" rerouteNo="1" devices="tripinfo_carIn462:1 routing_carIn462:1 emissions_carIn462:1" vType="default_016" speedFactor="0.90" vaporized="">
        <emissions CO_abs="6256.015248" CO2_abs="486870.411202" HC_abs="39.625287" PMx_abs="7.935846" NOx_abs="192.132542" fuel_abs="209.284952" electricity_abs="0"/>
    </tripinfo>
    <tripinfo id="carIn12858:1" depart="57661.00" departLane="128361109#1_1" departPos="5.10" departSpeed="0.00" departDelay="0.90" arrival="57816.00" arrivalLane="399835085#1_1" arrivalPos="212.23" arrivalSpeed="7.42" duration="155.00" routeLength="1738.12" waitingTime="9.00" waitingCount="2" stopTime="0.00" timeLoss="45.21" rerouteNo="1" devices="tripinfo_carIn12858:1 routing_carIn12858:1 emissions_carIn12858:1" vType="default_016" speedFactor="1.05" vaporized="">
        <emissions CO_abs="8577.127712" CO2_abs="524699.069830" HC_abs="51.574017" PMx_abs="10.221750" NOx_abs="217.885547" fuel_abs="225.544951" electricity_abs="0"/>
    </tripinfo>
    <tripinfo id="h17600c1:1" depart="57662.00" departLane="272042143_1" departPos="5.10" departSpeed="0.00" departDelay="0.30" arrival="57816.00" arrivalLane="201238729#3_1" arrivalPos="431.02" arrivalSpeed="13.54" duration="154.00" routeLength="2100.26" waitingTime="0.00" waitingCount="0" stopTime="0.00" timeLoss="11.32" rerouteNo="1" devices="tripinfo_h17600c1:1 routing_h17600c1:1 emissions_h17600c1:1" vType="default_016" speedFactor="1.07" vaporized="">
        <emissions CO_abs="3442.424855" CO2_abs="367886.761783" HC_abs="24.156677" PMx_abs="5.603114" NOx_abs="141.013506" fuel_abs="158.138610" electricity_abs="0"/>
    </tripinfo>
    <tripinfo id="carIn50326:1" depart="57651.00" departLane="128361102#0_1" departPos="5.10" departSpeed="0.00" departDelay="0.30" arrival="57817.00" arrivalLane="18809673#0_1" arrivalPos="473.56" arrivalSpeed="11.05" duration="166.00" routeLength="1591.07" waitingTime="0.00" waitingCount="0" stopTime="0.00" timeLoss="17.75" rerouteNo="1" devices="tripinfo_carIn50326:1 routing_carIn50326:1 emissions_carIn50326:1" vType="default_016" speedFactor="0.87" vaporized="">
        <emissions CO_abs="5393.687359" CO2_abs="343000.533504" HC_abs="32.486930" PMx_abs="5.386159" NOx_abs="136.263818" fuel_abs="147.442349" electricity_abs="0"/>
    </tripinfo>
    <tripinfo id="carIn129809:1" depart="57729.00" departLane="-447569998#1_1" departPos="5.10" departSpeed="0.00" departDelay="1.00" arrival="57825.00" arrivalLane="-315358244_1" arrivalPos="33.95" arrivalSpeed="9.91" duration="96.00" routeLength="706.49" waitingTime="0.00" waitingCount="0" stopTime="0.00" timeLoss="16.02" rerouteNo="1" devices="tripinfo_carIn129809:1 routing_carIn129809:1 emissions_carIn129809:1" vType="default_015" speedFactor="0.76" vaporized="">
        <emissions CO_abs="3901.613016" CO2_abs="182554.255830" HC_abs="21.951056" PMx_abs="2.905728" NOx_abs="73.423215" fuel_abs="78.473602" electricity_abs="0"/>
    </tripinfo>