<?xml version="1.0" encoding="UTF-8"?>

<!-- generated on 2021-10-26 12:04:10 by Eclipse SUMO sumo Version 1.10.0
<configuration xmlns:xsi="http://www.w3.org/2001/XMLSchema-instance" xsi:noNamespaceSchemaLocation="http://sumo.dlr.de/xsd/sumoConfiguration.xsd">

    <input>
        <net-file value="/Users/behradkoohy/sumo-scratchpad/RESCO/environments/ingolstadt21/ingolstadt21.net.xml"/>
        <route-files value="/Users/behradkoohy/sumo-scratchpad/RESCO/environments/ingolstadt21/ingolstadt21.rou.xml"/>
    </input>

    <output>
        <tripinfo-output value="/Users/behradkoohy/sumo-scratchpad/RESCO/logs/MAXWAVE-tr0-ingolstadt21-21-wave-wait/tripinfo_64.xml"/>
        <tripinfo-output.write-unfinished value="true"/>
    </output>

    <time>
        <begin value="57600"/>
        <end value="61200"/>
    </time>

    <processing>
        <time-to-teleport value="-1"/>
    </processing>

    <report>
        <no-warnings value="true"/>
        <no-step-log value="true"/>
    </report>

    <emissions>
        <device.emissions.probability value="1"/>
    </emissions>

    <traci_server>
        <remote-port value="57933"/>
    </traci_server>

    <random_number>
        <random value="true"/>
    </random_number>

</configuration>
-->

<tripinfos xmlns:xsi="http://www.w3.org/2001/XMLSchema-instance" xsi:noNamespaceSchemaLocation="http://sumo.dlr.de/xsd/tripinfo_file.xsd">
    <tripinfo id="h15454c2:3" depart="57612.00" departLane="24608844_1" departPos="5.10" departSpeed="0.00" departDelay="0.50" arrival="57654.00" arrivalLane="32978638#0_1" arrivalPos="49.29" arrivalSpeed="13.06" duration="42.00" routeLength="354.79" waitingTime="0.00" waitingCount="0" stopTime="0.00" timeLoss="5.68" rerouteNo="1" devices="tripinfo_h15454c2:3 routing_h15454c2:3 emissions_h15454c2:3" vType="default_016" speedFactor="0.94" vaporized="">
        <emissions CO_abs="2260.071928" CO2_abs="120475.656322" HC_abs="13.102757" PMx_abs="2.117637" NOx_abs="49.655592" fuel_abs="51.787648" electricity_abs="0"/>
    </tripinfo>
    <tripinfo id="carIn60260:1" depart="57606.00" departLane="315358254#0_1" departPos="5.10" departSpeed="0.00" departDelay="0.90" arrival="57668.00" arrivalLane="399835085#1_1" arrivalPos="212.23" arrivalSpeed="6.77" duration="62.00" routeLength="430.98" waitingTime="0.00" waitingCount="0" stopTime="0.00" timeLoss="7.26" rerouteNo="1" devices="tripinfo_carIn60260:1 routing_carIn60260:1 emissions_carIn60260:1" vType="default_016" speedFactor="0.84" vaporized="">
        <emissions CO_abs="2558.999433" CO2_abs="113663.150122" HC_abs="14.257856" PMx_abs="1.841374" NOx_abs="46.090055" fuel_abs="48.859803" electricity_abs="0"/>
    </tripinfo>
    <tripinfo id="carIn53971:1" depart="57640.00" departLane="272042143_1" departPos="5.10" departSpeed="0.00" departDelay="0.80" arrival="57695.00" arrivalLane="24634414#1_1" arrivalPos="162.19" arrivalSpeed="7.93" duration="55.00" routeLength="493.04" waitingTime="0.00" waitingCount="0" stopTime="0.00" timeLoss="7.94" rerouteNo="1" devices="tripinfo_carIn53971:1 routing_carIn53971:1 emissions_carIn53971:1" vType="default_016" speedFactor="0.97" vaporized="">
        <emissions CO_abs="2446.488628" CO2_abs="141852.458834" HC_abs="14.442042" PMx_abs="2.395366" NOx_abs="57.573844" fuel_abs="60.976670" electricity_abs="0"/>
    </tripinfo>
    <tripinfo id="h12244c1:3" depart="57612.00" departLane="315358244_1" departPos="5.10" departSpeed="0.00" departDelay="0.40" arrival="57700.00" arrivalLane="386687235_1" arrivalPos="80.84" arrivalSpeed="15.31" duration="88.00" routeLength="1186.14" waitingTime="1.00" waitingCount="1" stopTime="0.00" timeLoss="11.87" rerouteNo="1" devices="tripinfo_h12244c1:3 routing_h12244c1:3 emissions_h12244c1:3" vType="default_016" speedFactor="1.14" vaporized="">
        <emissions CO_abs="2897.826027" CO2_abs="243678.349920" HC_abs="18.857926" PMx_abs="4.071121" NOx_abs="95.889066" fuel_abs="104.746746" electricity_abs="0"/>
    </tripinfo>
    <tripinfo id="S5R_frequency1.2" depart="57615.00" departLane="315358250#0_1" departPos="12.10" departSpeed="0.00" departDelay="3.40" arrival="57708.00" arrivalLane="386687235_1" arrivalPos="80.84" arrivalSpeed="13.73" duration="93.00" routeLength="1115.62" waitingTime="0.00" waitingCount="0" stopTime="0.00" timeLoss="11.11" rerouteNo="1" devices="tripinfo_S5R_frequency1.2 routing_S5R_frequency1.2 emissions_S5R_frequency1.2" vType="bus" speedFactor="1.00" vaporized="">
        <emissions CO_abs="1933.967911" CO2_abs="1230559.533768" HC_abs="411.291791" PMx_abs="208.047872" NOx_abs="9491.494208" fuel_abs="524.831191" electricity_abs="0"/>
    </tripinfo>
    <tripinfo id="carIn22761:1" depart="57616.00" departLane="-306240162#1_0" departPos="5.10" departSpeed="0.00" departDelay="2.10" arrival="57710.00" arrivalLane="399835085#1_1" arrivalPos="212.23" arrivalSpeed="7.95" duration="94.00" routeLength="1093.26" waitingTime="6.00" waitingCount="1" stopTime="0.00" timeLoss="21.84" rerouteNo="1" devices="tripinfo_carIn22761:1 routing_carIn22761:1 emissions_carIn22761:1" vType="default_016" speedFactor="1.08" vaporized="">
        <emissions CO_abs="4617.998459" CO2_abs="295817.483433" HC_abs="28.059864" PMx_abs="5.546105" NOx_abs="120.595611" fuel_abs="127.159101" electricity_abs="0"/>
    </tripinfo>
    <tripinfo id="carIn80064:1" depart="57603.00" departLane="128361109#1_1" departPos="5.10" departSpeed="0.00" departDelay="0.40" arrival="57714.00" arrivalLane="-315358254#1_1" arrivalPos="137.16" arrivalSpeed="13.39" duration="111.00" routeLength="1587.97" waitingTime="0.00" waitingCount="0" stopTime="0.00" timeLoss="21.08" rerouteNo="1" devices="tripinfo_carIn80064:1 routing_carIn80064:1 emissions_carIn80064:1" vType="default_016" speedFactor="1.00" vaporized="">
        <emissions CO_abs="6013.531149" CO2_abs="467960.625709" HC_abs="38.547411" PMx_abs="8.762317" NOx_abs="189.327374" fuel_abs="201.155020" electricity_abs="0"/>
    </tripinfo>
    <tripinfo id="h7800c1:5" depart="57696.00" departLane="-447569998#1_1" departPos="5.10" departSpeed="0.00" departDelay="0.00" arrival="57721.00" arrivalLane="-447569998#1_1" arrivalPos="180.76" arrivalSpeed="7.35" duration="25.00" routeLength="175.66" waitingTime="0.00" waitingCount="0" stopTime="0.00" timeLoss="3.83" rerouteNo="1" devices="tripinfo_h7800c1:5 routing_h7800c1:5 emissions_h7800c1:5" vType="default_016" speedFactor="1.01" vaporized="">
        <emissions CO_abs="1060.318014" CO2_abs="44280.937315" HC_abs="5.843179" PMx_abs="0.729844" NOx_abs="18.068225" fuel_abs="19.034854" electricity_abs="0"/>
    </tripinfo>
    <tripinfo id="h3688c1:1" depart="57625.00" departLane="201201950#1_1" departPos="5.10" departSpeed="0.00" departDelay="0.00" arrival="57732.00" arrivalLane="32978638#0_1" arrivalPos="49.29" arrivalSpeed="12.79" duration="107.00" routeLength="1089.75" waitingTime="7.00" waitingCount="1" stopTime="0.00" timeLoss="22.60" rerouteNo="1" devices="tripinfo_h3688c1:1 routing_h3688c1:1 emissions_h3688c1:1" vType="default_016" speedFactor="0.94" vaporized="">
        <emissions CO_abs="3663.677125" CO2_abs="265397.218615" HC_abs="22.891199" PMx_abs="4.419843" NOx_abs="106.335147" fuel_abs="114.083011" electricity_abs="0"/>
    </tripinfo>
    <tripinfo id="h3568c1:3" depart="57656.00" departLane="266565295#5_1" departPos="5.10" departSpeed="0.00" departDelay="0.80" arrival="57732.00" arrivalLane="-24634415_1" arrivalPos="62.03" arrivalSpeed="13.48" duration="76.00" routeLength="807.40" waitingTime="0.00" waitingCount="0" stopTime="0.00" timeLoss="12.90" rerouteNo="1" devices="tripinfo_h3568c1:3 routing_h3568c1:3 emissions_h3568c1:3" vType="default_016" speedFactor="1.01" vaporized="">
        <emissions CO_abs="3336.544141" CO2_abs="208341.906272" HC_abs="20.074154" PMx_abs="3.694503" NOx_abs="85.229492" fuel_abs="89.557367" electricity_abs="0"/>
    </tripinfo>
    <tripinfo id="h317c2:1" depart="57707.00" departLane="-32978638#0_1" departPos="5.10" departSpeed="0.00" departDelay="0.10" arrival="57743.00" arrivalLane="-266565295#5_1" arrivalPos="172.76" arrivalSpeed="15.13" duration="36.00" routeLength="370.53" waitingTime="2.00" waitingCount="1" stopTime="0.00" timeLoss="11.08" rerouteNo="1" devices="tripinfo_h317c2:1 routing_h317c2:1 emissions_h317c2:1" vType="default_016" speedFactor="1.11" vaporized="">
        <emissions CO_abs="2242.910005" CO2_abs="133355.404868" HC_abs="13.355398" PMx_abs="2.577420" NOx_abs="55.827857" fuel_abs="57.323617" electricity_abs="0"/>
    </tripinfo>
    <tripinfo id="h7181c1:1" depart="57660.00" departLane="315358254#0_1" departPos="5.10" departSpeed="0.00" departDelay="0.10" arrival="57750.00" arrivalLane="306240162#0_0" arrivalPos="220.43" arrivalSpeed="16.73" duration="90.00" routeLength="932.35" waitingTime="20.00" waitingCount="2" stopTime="0.00" timeLoss="39.50" rerouteNo="1" devices="tripinfo_h7181c1:1 routing_h7181c1:1 emissions_h7181c1:1" vType="default_016" speedFactor="1.02" vaporized="">
        <emissions CO_abs="6493.990231" CO2_abs="315265.276622" HC_abs="37.138881" PMx_abs="6.522230" NOx_abs="133.074400" fuel_abs="135.519214" electricity_abs="0"/>
    </tripinfo>
    <tripinfo id="h5979c1:5" depart="57669.00" departLane="399835085#1_1" departPos="5.10" departSpeed="0.00" departDelay="0.00" arrival="57751.00" arrivalLane="-315358254#1_1" arrivalPos="137.16" arrivalSpeed="13.25" duration="82.00" routeLength="659.33" waitingTime="0.00" waitingCount="0" stopTime="0.00" timeLoss="10.04" rerouteNo="1" devices="tripinfo_h5979c1:5 routing_h5979c1:5 emissions_h5979c1:5" vType="default_016" speedFactor="1.02" vaporized="">
        <emissions CO_abs="3135.722826" CO2_abs="164050.666945" HC_abs="18.019261" PMx_abs="2.494559" NOx_abs="65.009143" fuel_abs="70.519447" electricity_abs="0"/>
    </tripinfo>
    <tripinfo id="carIn30817:1" depart="57681.00" departLane="315358244_1" departPos="5.10" departSpeed="0.00" departDelay="0.20" arrival="57752.00" arrivalLane="447569997#1_1" arrivalPos="180.93" arrivalSpeed="6.92" duration="71.00" routeLength="718.04" waitingTime="0.00" waitingCount="0" stopTime="0.00" timeLoss="7.69" rerouteNo="1" devices="tripinfo_carIn30817:1 routing_carIn30817:1 emissions_carIn30817:1" vType="default_016" speedFactor="0.97" vaporized="">
        <emissions CO_abs="2267.743829" CO2_abs="147072.257335" HC_abs="13.730257" PMx_abs="2.314646" NOx_abs="58.271395" fuel_abs="63.220514" electricity_abs="0"/>
    </tripinfo>
    <tripinfo id="h4538c1:1" depart="57701.00" departLane="-10427692#1_1" departPos="5.10" departSpeed="0.00" departDelay="0.00" arrival="57760.00" arrivalLane="-128361102#1_1" arrivalPos="274.68" arrivalSpeed="11.95" duration="59.00" routeLength="440.74" waitingTime="13.00" waitingCount="1" stopTime="0.00" timeLoss="23.23" rerouteNo="1" devices="tripinfo_h4538c1:1 routing_h4538c1:1 emissions_h4538c1:1" vType="default_016" speedFactor="0.88" vaporized="">
        <emissions CO_abs="3055.426645" CO2_abs="134142.888606" HC_abs="17.033271" PMx_abs="2.356894" NOx_abs="54.845926" fuel_abs="57.663150" electricity_abs="0"/>
    </tripinfo>
    <tripinfo id="h3326c1:2" depart="57656.00" departLane="22716069#0_1" departPos="5.10" departSpeed="0.00" departDelay="0.00" arrival="57761.00" arrivalLane="24634517#13_1" arrivalPos="111.62" arrivalSpeed="14.48" duration="105.00" routeLength="1312.81" waitingTime="0.00" waitingCount="0" stopTime="0.00" timeLoss="15.04" rerouteNo="1" devices="tripinfo_h3326c1:2 routing_h3326c1:2 emissions_h3326c1:2" vType="default_016" speedFactor="1.09" vaporized="">
        <emissions CO_abs="4131.937142" CO2_abs="313575.351736" HC_abs="26.146992" PMx_abs="5.526621" NOx_abs="126.902982" fuel_abs="134.792172" electricity_abs="0"/>
    </tripinfo>
    <tripinfo id="carIn28951:1" depart="57606.00" departLane="10425609#0_1" departPos="5.10" departSpeed="0.00" departDelay="0.20" arrival="57762.00" arrivalLane="-128361102#1_1" arrivalPos="274.68" arrivalSpeed="14.37" duration="156.00" routeLength="2113.04" waitingTime="0.00" waitingCount="0" stopTime="0.00" timeLoss="18.50" rerouteNo="1" devices="tripinfo_carIn28951:1 routing_carIn28951:1 emissions_carIn28951:1" vType="default_016" speedFactor="1.13" vaporized="">
        <emissions CO_abs="5513.474049" CO2_abs="481324.420970" HC_abs="36.278166" PMx_abs="8.259587" NOx_abs="191.688423" fuel_abs="206.899865" electricity_abs="0"/>
    </tripinfo>
    <tripinfo id="h9563c2:5" depart="57631.00" departLane="315358244_1" departPos="5.10" departSpeed="0.00" departDelay="0.70" arrival="57764.00" arrivalLane="386687235_1" arrivalPos="80.84" arrivalSpeed="9.15" duration="133.00" routeLength="1186.14" waitingTime="0.00" waitingCount="0" stopTime="0.00" timeLoss="10.67" rerouteNo="1" devices="tripinfo_h9563c2:5 routing_h9563c2:5 emissions_h9563c2:5" vType="default_016" speedFactor="0.71" vaporized="">
        <emissions CO_abs="3798.309673" CO2_abs="232436.678387" HC_abs="22.604270" PMx_abs="3.381739" NOx_abs="91.059250" fuel_abs="99.915811" electricity_abs="0"/>
    </tripinfo>
    <tripinfo id="h3154c1:1" depart="57658.00" departLane="24634507_1" departPos="5.10" departSpeed="0.00" departDelay="0.00" arrival="57770.00" arrivalLane="-266565295#5_1" arrivalPos="172.76" arrivalSpeed="14.30" duration="112.00" routeLength="1206.22" waitingTime="5.00" waitingCount="1" stopTime="0.00" timeLoss="26.28" rerouteNo="1" devices="tripinfo_h3154c1:1 routing_h3154c1:1 emissions_h3154c1:1" vType="default_016" speedFactor="1.04" vaporized="">
        <emissions CO_abs="4461.919052" CO2_abs="303557.600416" HC_abs="27.375329" PMx_abs="5.328505" NOx_abs="123.176069" fuel_abs="130.486361" electricity_abs="0"/>
    </tripinfo>
    <tripinfo id="h645c1:1" depart="57622.00" departLane="266565295#5_1" departPos="5.10" departSpeed="0.00" departDelay="0.40" arrival="57775.00" arrivalLane="-315358244_1" arrivalPos="33.95" arrivalSpeed="12.64" duration="153.00" routeLength="1910.83" waitingTime="0.00" waitingCount="0" stopTime="0.00" timeLoss="11.45" rerouteNo="1" devices="tripinfo_h645c1:1 routing_h645c1:1 emissions_h645c1:1" vType="default_016" speedFactor="0.98" vaporized="">
        <emissions CO_abs="3651.886589" CO2_abs="358637.273747" HC_abs="24.921109" PMx_abs="5.320716" NOx_abs="137.809169" fuel_abs="154.163009" electricity_abs="0"/>
    </tripinfo>
    <tripinfo id="h330c1:1" depart="57736.00" departLane="-32978638#0_1" departPos="5.10" departSpeed="0.00" departDelay="0.20" arrival="57775.00" arrivalLane="-266565295#5_1" arrivalPos="172.76" arrivalSpeed="13.47" duration="39.00" routeLength="370.53" waitingTime="2.00" waitingCount="1" stopTime="0.00" timeLoss="11.81" rerouteNo="1" devices="tripinfo_h330c1:1 routing_h330c1:1 emissions_h330c1:1" vType="default_016" speedFactor="1.03" vaporized="">
        <emissions CO_abs="1948.622122" CO2_abs="115403.631649" HC_abs="11.572439" PMx_abs="2.119911" NOx_abs="47.727656" fuel_abs="49.607103" electricity_abs="0"/>
    </tripinfo>
    <tripinfo id="carIn12365:1" depart="57713.00" departLane="315358244_1" departPos="5.10" departSpeed="0.00" departDelay="0.50" arrival="57777.00" arrivalLane="447569997#1_1" arrivalPos="180.93" arrivalSpeed="8.26" duration="64.00" routeLength="718.04" waitingTime="0.00" waitingCount="0" stopTime="0.00" timeLoss="7.42" rerouteNo="1" devices="tripinfo_carIn12365:1 routing_carIn12365:1 emissions_carIn12365:1" vType="default_016" speedFactor="1.10" vaporized="">
        <emissions CO_abs="1966.767877" CO2_abs="142870.679013" HC_abs="12.242402" PMx_abs="2.301882" NOx_abs="56.453223" fuel_abs="61.414182" electricity_abs="0"/>
    </tripinfo>
    <tripinfo id="carIn107084:1" depart="57601.00" departLane="124812856#0_1" departPos="5.10" departSpeed="0.00" departDelay="0.70" arrival="57783.00" arrivalLane="-128361102#1_1" arrivalPos="274.68" arrivalSpeed="13.70" duration="182.00" routeLength="2250.49" waitingTime="3.00" waitingCount="1" stopTime="0.00" timeLoss="25.90" rerouteNo="1" devices="tripinfo_carIn107084:1 routing_carIn107084:1 emissions_carIn107084:1" vType="default_016" speedFactor="1.05" vaporized="">
        <emissions CO_abs="5783.839453" CO2_abs="477522.358541" HC_abs="37.467823" PMx_abs="8.012178" NOx_abs="189.967521" fuel_abs="205.265994" electricity_abs="0"/>
    </tripinfo>
    <tripinfo id="carIn27009:1" depart="57673.00" departLane="-447569998#1_1" departPos="5.10" departSpeed="0.00" departDelay="0.50" arrival="57784.00" arrivalLane="-26677539_1" arrivalPos="152.75" arrivalSpeed="7.00" duration="111.00" routeLength="699.63" waitingTime="0.00" waitingCount="0" stopTime="0.00" timeLoss="13.39" rerouteNo="1" devices="tripinfo_carIn27009:1 routing_carIn27009:1 emissions_carIn27009:1" vType="default_015" speedFactor="0.86" vaporized="">
        <emissions CO_abs="4672.398850" CO2_abs="190626.554143" HC_abs="25.636903" PMx_abs="3.129281" NOx_abs="77.881305" fuel_abs="81.943901" electricity_abs="0"/>
    </tripinfo>
    <tripinfo id="carIn118591:1" depart="57689.00" departLane="315358244_1" departPos="5.10" departSpeed="0.00" departDelay="0.20" arrival="57788.00" arrivalLane="386687235_1" arrivalPos="80.84" arrivalSpeed="13.03" duration="99.00" routeLength="1186.14" waitingTime="0.00" waitingCount="0" stopTime="0.00" timeLoss="8.46" rerouteNo="1" devices="tripinfo_carIn118591:1 routing_carIn118591:1 emissions_carIn118591:1" vType="default_016" speedFactor="0.96" vaporized="">
        <emissions CO_abs="2422.630873" CO2_abs="216274.080463" HC_abs="16.045621" PMx_abs="3.222547" NOx_abs="83.498366" fuel_abs="92.967228" electricity_abs="0"/>
    </tripinfo>
    <tripinfo id="carIn107282:1" depart="57749.00" departLane="-447569998#1_1" departPos="5.10" departSpeed="0.00" departDelay="0.00" arrival="57791.00" arrivalLane="315358242#0_1" arrivalPos="165.37" arrivalSpeed="14.94" duration="42.00" routeLength="448.50" waitingTime="0.00" waitingCount="0" stopTime="0.00" timeLoss="4.79" rerouteNo="1" devices="tripinfo_carIn107282:1 routing_carIn107282:1 emissions_carIn107282:1" vType="default_016" speedFactor="1.12" vaporized="">
        <emissions CO_abs="1623.479589" CO2_abs="104507.707751" HC_abs="9.809594" PMx_abs="1.734668" NOx_abs="41.884038" fuel_abs="44.923587" electricity_abs="0"/>
    </tripinfo>
    <tripinfo id="carIn77943:1" depart="57608.00" departLane="124812856#0_1" departPos="5.10" departSpeed="0.00" departDelay="2.50" arrival="57801.00" arrivalLane="-128361102#1_1" arrivalPos="274.68" arrivalSpeed="12.27" duration="193.00" routeLength="2250.49" waitingTime="0.00" waitingCount="0" stopTime="0.00" timeLoss="24.70" rerouteNo="1" devices="tripinfo_carIn77943:1 routing_carIn77943:1 emissions_carIn77943:1" vType="default_016" speedFactor="0.97" vaporized="">
        <emissions CO_abs="5818.375037" CO2_abs="462270.584351" HC_abs="37.279536" PMx_abs="7.463804" NOx_abs="182.849732" fuel_abs="198.710486" electricity_abs="0"/>
    </tripinfo>
    <tripinfo id="h17600c1:1" depart="57662.00" departLane="272042143_1" departPos="5.10" departSpeed="0.00" departDelay="0.30" arrival="57802.00" arrivalLane="201238729#3_1" arrivalPos="431.02" arrivalSpeed="15.81" duration="140.00" routeLength="2100.26" waitingTime="0.00" waitingCount="0" stopTime="0.00" timeLoss="11.36" rerouteNo="1" devices="tripinfo_h17600c1:1 routing_h17600c1:1 emissions_h17600c1:1" vType="default_016" speedFactor="1.18" vaporized="">
        <emissions CO_abs="3381.365919" CO2_abs="366389.405516" HC_abs="23.785874" PMx_abs="5.885459" NOx_abs="141.180068" fuel_abs="157.494557" electricity_abs="0"/>
    </tripinfo>
    <tripinfo id="carIn81046:1" depart="57611.00" departLane="124812856#0_1" departPos="5.10" departSpeed="0.00" departDelay="2.50" arrival="57803.00" arrivalLane="-128361102#1_1" arrivalPos="274.68" arrivalSpeed="13.02" duration="192.00" routeLength="2250.49" waitingTime="0.00" waitingCount="0" stopTime="0.00" timeLoss="25.09" rerouteNo="1" devices="tripinfo_carIn81046:1 routing_carIn81046:1 emissions_carIn81046:1" vType="default_016" speedFactor="0.98" vaporized="">
        <emissions CO_abs="5901.657584" CO2_abs="467042.620646" HC_abs="37.800343" PMx_abs="7.689830" NOx_abs="185.849018" fuel_abs="200.761559" electricity_abs="0"/>
    </tripinfo>
    <tripinfo id="carIn48184:1" depart="57613.00" departLane="-306240162#1_0" departPos="5.10" departSpeed="0.00" departDelay="0.70" arrival="57803.00" arrivalLane="386687235_1" arrivalPos="80.84" arrivalSpeed="14.37" duration="190.00" routeLength="2257.41" waitingTime="21.00" waitingCount="2" stopTime="0.00" timeLoss="52.46" rerouteNo="1" devices="tripinfo_carIn48184:1 routing_carIn48184:1 emissions_carIn48184:1" vType="default_016" speedFactor="1.08" vaporized="">
        <emissions CO_abs="10207.962769" CO2_abs="600627.037885" HC_abs="60.745962" PMx_abs="11.462981" NOx_abs="246.960756" fuel_abs="258.183819" electricity_abs="0"/>
    </tripinfo>
    <tripinfo id="carIn82220:1" depart="57619.00" departLane="-306240162#1_0" departPos="5.10" departSpeed="0.00" departDelay="3.50" arrival="57803.00" arrivalLane="386687235_2" arrivalPos="80.84" arrivalSpeed="13.38" duration="184.00" routeLength="2257.41" waitingTime="10.00" waitingCount="3" stopTime="0.00" timeLoss="42.43" rerouteNo="1" devices="tripinfo_carIn82220:1 routing_carIn82220:1 emissions_carIn82220:1" vType="default_016" speedFactor="1.05" vaporized="">
        <emissions CO_abs="7330.746161" CO2_abs="536037.172681" HC_abs="46.030781" PMx_abs="9.673535" NOx_abs="215.854335" fuel_abs="230.418824" electricity_abs="0"/>
    </tripinfo>
    <tripinfo id="carIn82278:1" depart="57702.00" departLane="-306240162#1_0" departPos="5.10" departSpeed="0.00" departDelay="0.70" arrival="57804.00" arrivalLane="399835085#1_1" arrivalPos="212.23" arrivalSpeed="8.26" duration="102.00" routeLength="1093.26" waitingTime="9.00" waitingCount="1" stopTime="0.00" timeLoss="25.43" rerouteNo="1" devices="tripinfo_carIn82278:1 routing_carIn82278:1 emissions_carIn82278:1" vType="default_016" speedFactor="1.02" vaporized="">
        <emissions CO_abs="4764.603163" CO2_abs="290448.834476" HC_abs="28.473503" PMx_abs="5.384765" NOx_abs="118.392044" fuel_abs="124.851583" electricity_abs="0"/>
    </tripinfo>
    <tripinfo id="h19804c1:3" depart="57617.00" departLane="124812856#0_1" departPos="5.10" departSpeed="0.00" departDelay="1.50" arrival="57805.00" arrivalLane="-128361102#1_1" arrivalPos="274.68" arrivalSpeed="13.08" duration="188.00" routeLength="2250.49" waitingTime="0.00" waitingCount="0" stopTime="0.00" timeLoss="25.34" rerouteNo="1" devices="tripinfo_h19804c1:3 routing_h19804c1:3 emissions_h19804c1:3" vType="default_016" speedFactor="1.01" vaporized="">
        <emissions CO_abs="5188.712544" CO2_abs="426846.780971" HC_abs="33.604184" PMx_abs="6.992007" NOx_abs="169.402274" fuel_abs="183.482994" electricity_abs="0"/>
    </tripinfo>
    <tripinfo id="carIn12858:1" depart="57661.00" departLane="128361109#1_1" departPos="5.10" departSpeed="0.00" departDelay="0.90" arrival="57806.00" arrivalLane="399835085#1_1" arrivalPos="212.23" arrivalSpeed="8.91" duration="145.00" routeLength="1738.12" waitingTime="3.00" waitingCount="1" stopTime="0.00" timeLoss="37.43" rerouteNo="1" devices="tripinfo_carIn12858:1 routing_carIn12858:1 emissions_carIn12858:1" vType="default_016" speedFactor="1.07" vaporized="">
        <emissions CO_abs="8118.686990" CO2_abs="517841.802099" HC_abs="49.343571" PMx_abs="10.053585" NOx_abs="213.897475" fuel_abs="222.597168" electricity_abs="0"/>
    </tripinfo>
    <tripinfo id="h16072c2:3" depart="57663.00" departLane="315358254#0_1" departPos="5.10" departSpeed="0.00" departDelay="2.50" arrival="57806.00" arrivalLane="386687235_1" arrivalPos="80.84" arrivalSpeed="12.42" duration="143.00" routeLength="1611.92" waitingTime="3.00" waitingCount="1" stopTime="0.00" timeLoss="22.81" rerouteNo="1" devices="tripinfo_h16072c2:3 routing_h16072c2:3 emissions_h16072c2:3" vType="default_016" speedFactor="0.98" vaporized="">
        <emissions CO_abs="4328.659248" CO2_abs="322575.277301" HC_abs="27.252865" PMx_abs="5.326789" NOx_abs="128.485826" fuel_abs="138.661444" electricity_abs="0"/>
    </tripinfo>
    <tripinfo id="carIn129809:1" depart="57729.00" departLane="-447569998#1_1" departPos="5.10" departSpeed="0.00" departDelay="1.00" arrival="57813.00" arrivalLane="-315358244_1" arrivalPos="33.95" arrivalSpeed="13.79" duration="84.00" routeLength="706.49" waitingTime="11.00" waitingCount="2" stopTime="0.00" timeLoss="25.35" rerouteNo="1" devices="tripinfo_carIn129809:1 routing_carIn129809:1 emissions_carIn129809:1" vType="default_015" speedFactor="1.03" vaporized="">
        <emissions CO_abs="3836.429670" CO2_abs="201645.418103" HC_abs="22.095858" PMx_abs="3.487235" NOx_abs="81.880032" fuel_abs="86.679477" electricity_abs="0"/>
    </tripinfo>
    <tripinfo id="carIn50326:1" depart="57651.00" departLane="128361102#0_1" departPos="5.10" departSpeed="0.00" departDelay="0.30" arrival="57816.00" arrivalLane="18809673#0_1" arrivalPos="473.56" arrivalSpeed="12.16" duration="165.00" routeLength="1591.07" waitingTime="3.00" waitingCount="1" stopTime="0.00" timeLoss="23.37" rerouteNo="1" devices="tripinfo_carIn50326:1 routing_carIn50326:1 emissions_carIn50326:1" vType="default_016" speedFactor="0.92" vaporized="">
        <emissions CO_abs="5568.455012" CO2_abs="355390.014885" HC_abs="33.571932" PMx_abs="5.559996" NOx_abs="140.637653" fuel_abs="152.768154" electricity_abs="0"/>
    </tripinfo>
    <tripinfo id="carIn46110:1" depart="57684.00" departLane="315358244_1" departPos="5.10" departSpeed="0.00" departDelay="1.20" arrival="57820.00" arrivalLane="32978638#0_1" arrivalPos="49.29" arrivalSpeed="14.85" duration="136.00" routeLength="1764.04" waitingTime="2.00" waitingCount="1" stopTime="0.00" timeLoss="17.61" rerouteNo="1" devices="tripinfo_carIn46110:1 routing_carIn46110:1 emissions_carIn46110:1" vType="default_016" speedFactor="1.09" vaporized="">
        <emissions CO_abs="3944.669613" CO2_abs="334567.487724" HC_abs="25.695907" PMx_abs="5.538132" NOx_abs="131.999846" fuel_abs="143.816017" electricity_abs="0"/>
    </tripinfo>
    <tripinfo id="carIn86816:1" depart="57617.00" departLane="128361102#0_1" departPos="5.10" departSpeed="0.00" departDelay="0.80" arrival="57822.00" arrivalLane="201956811#0_1" arrivalPos="40.40" arrivalSpeed="11.32" duration="205.00" routeLength="2067.33" waitingTime="4.00" waitingCount="2" stopTime="0.00" timeLoss="29.52" rerouteNo="1" devices="tripinfo_carIn86816:1 routing_carIn86816:1 emissions_carIn86816:1" vType="default_016" speedFactor="0.86" vaporized="">
        <emissions CO_abs="6145.291937" CO2_abs="436086.281168" HC_abs="38.055667" PMx_abs="6.650426" NOx_abs="171.213793" fuel_abs="187.455997" electricity_abs="0"/>
    </tripinfo>
    <tripinfo id="carIn102915:1" depart="57643.00" departLane="128361102#0_1" departPos="5.10" departSpeed="0.00" departDelay="0.40" arrival="57825.00" arrivalLane="201956811#0_1" arrivalPos="40.40" arrivalSpeed="12.60" duration="182.00" routeLength="2067.33" waitingTime="0.00" waitingCount="0" stopTime="0.00" timeLoss="18.49" rerouteNo="1" devices="tripinfo_carIn102915:1 routing_carIn102915:1 emissions_carIn102915:1" vType="default_016" speedFactor="0.92" vaporized="">
        <emissions CO_abs="4913.606459" CO2_abs="405135.388031" HC_abs="31.780038" PMx_abs="6.233440" NOx_abs="158.568622" fuel_abs="174.150774" electricity_abs="0"/>
    </tripinfo>
    <tripinfo id="carIn126288:1" depart="57674.00" departLane="272042143_1" departPos="5.10" departSpeed="0.00" departDelay="0.00" arrival="57826.00" arrivalLane="-315358254#1_1" arrivalPos="137.16" arrivalSpeed="15.14" duration="152.00" routeLength="1596.88" waitingTime="33.00" waitingCount="1" stopTime="0.00" timeLoss="49.25" rerouteNo="1" devices="tripinfo_carIn126288:1 routing_carIn126288:1 emissions_carIn126288:1" vType="default_016" speedFactor="1.14" vaporized="">
        <emissions CO_abs="8583.861843" CO2_abs="418327.940586" HC_abs="48.820170" PMx_abs="7.690565" NOx_abs="170.306235" fuel_abs="179.822922" electricity_abs="0"/>
    </tripinfo>
    <tripinfo id="randUni33724:1" depart="57646.00" departLane="128361102#0_1" departPos="5.10" departSpeed="0.00" departDelay="1.20" arrival="57828.00" arrivalLane="201956811#0_1" arrivalPos="40.40" arrivalSpeed="12.57" duration="182.00" routeLength="2067.33" waitingTime="0.00" waitingCount="0" stopTime="0.00" timeLoss="21.08" rerouteNo="1" devices="tripinfo_randUni33724:1 routing_randUni33724:1 emissions_randUni33724:1" vType="random_016" speedFactor="0.94" vaporized="">
        <emissions CO_abs="5452.603954" CO2_abs="429113.891545" HC_abs="34.854058" PMx_abs="6.984682" NOx_abs="170.634312" fuel_abs="184.457737" electricity_abs="0"/>
    </tripinfo>
    <tripinfo id="carIn81860:1" depart="57712.00" departLane="128361102#0_1" departPos="5.10" departSpeed="0.00" departDelay="0.60" arrival="57831.00" arrivalLane="-24634517#17_1" arrivalPos="6.43" arrivalSpeed="8.59" duration="119.00" routeLength="1229.64" waitingTime="16.00" waitingCount="2" stopTime="0.00" timeLoss="35.27" rerouteNo="1" devices="tripinfo_carIn81860:1 routing_carIn81860:1 emissions_carIn81860:1" vType="default_016" speedFactor="1.08" vaporized="">
        <emissions CO_abs="5492.066806" CO2_abs="312638.548404" HC_abs="32.358435" PMx_abs="5.658741" NOx_abs="127.606639" fuel_abs="134.390427" electricity_abs="0"/>
    </tripinfo>
    <tripinfo id="h11737c1:1" depart="57665.00" departLane="272042143_1" departPos="5.10" departSpeed="0.00" departDelay="1.50" arrival="57833.00" arrivalLane="-315358254#1_1" arrivalPos="137.16" arrivalSpeed="9.93" duration="168.00" routeLength="1596.88" waitingTime="3.00" waitingCount="1" stopTime="0.00" timeLoss="21.43" rerouteNo="1" devices="tripinfo_h11737c1:1 routing_h11737c1:1 emissions_h11737c1:1" vType="default_016" speedFactor="0.80" vaporized="">
        <emissions CO_abs="4983.099857" CO2_abs="334001.297588" HC_abs="30.366858" PMx_abs="4.975189" NOx_abs="130.859906" fuel_abs="143.574125" electricity_abs="0"/>
    </tripinfo>