<?xml version="1.0" encoding="UTF-8"?>

<!-- generated on 2021-10-26 12:07:35 by Eclipse SUMO sumo Version 1.10.0
<configuration xmlns:xsi="http://www.w3.org/2001/XMLSchema-instance" xsi:noNamespaceSchemaLocation="http://sumo.dlr.de/xsd/sumoConfiguration.xsd">

    <input>
        <net-file value="/Users/behradkoohy/sumo-scratchpad/RESCO/environments/ingolstadt21/ingolstadt21.net.xml"/>
        <route-files value="/Users/behradkoohy/sumo-scratchpad/RESCO/environments/ingolstadt21/ingolstadt21.rou.xml"/>
    </input>

    <output>
        <tripinfo-output value="/Users/behradkoohy/sumo-scratchpad/RESCO/logs/MAXWAVE-tr0-ingolstadt21-21-wave-wait/tripinfo_70.xml"/>
        <tripinfo-output.write-unfinished value="true"/>
    </output>

    <time>
        <begin value="57600"/>
        <end value="61200"/>
    </time>

    <processing>
        <time-to-teleport value="-1"/>
    </processing>

    <report>
        <no-warnings value="true"/>
        <no-step-log value="true"/>
    </report>

    <emissions>
        <device.emissions.probability value="1"/>
    </emissions>

    <traci_server>
        <remote-port value="57967"/>
    </traci_server>

    <random_number>
        <random value="true"/>
    </random_number>

</configuration>
-->

<tripinfos xmlns:xsi="http://www.w3.org/2001/XMLSchema-instance" xsi:noNamespaceSchemaLocation="http://sumo.dlr.de/xsd/tripinfo_file.xsd">
    <tripinfo id="carIn60260:1" depart="57606.00" departLane="315358254#0_1" departPos="5.10" departSpeed="0.00" departDelay="0.90" arrival="57651.00" arrivalLane="399835085#1_1" arrivalPos="212.23" arrivalSpeed="9.55" duration="45.00" routeLength="430.98" waitingTime="0.00" waitingCount="0" stopTime="0.00" timeLoss="7.59" rerouteNo="1" devices="tripinfo_carIn60260:1 routing_carIn60260:1 emissions_carIn60260:1" vType="default_016" speedFactor="1.22" vaporized="">
        <emissions CO_abs="1955.179289" CO2_abs="114576.075349" HC_abs="11.574934" PMx_abs="1.954041" NOx_abs="46.585586" fuel_abs="49.251606" electricity_abs="0"/>
    </tripinfo>
    <tripinfo id="h15454c2:3" depart="57612.00" departLane="24608844_1" departPos="5.10" departSpeed="0.00" departDelay="0.50" arrival="57651.00" arrivalLane="32978638#0_1" arrivalPos="49.29" arrivalSpeed="13.97" duration="39.00" routeLength="354.79" waitingTime="0.00" waitingCount="0" stopTime="0.00" timeLoss="6.58" rerouteNo="1" devices="tripinfo_h15454c2:3 routing_h15454c2:3 emissions_h15454c2:3" vType="default_016" speedFactor="1.06" vaporized="">
        <emissions CO_abs="2143.482176" CO2_abs="118825.534164" HC_abs="12.545773" PMx_abs="2.128124" NOx_abs="49.086557" fuel_abs="51.078208" electricity_abs="0"/>
    </tripinfo>
    <tripinfo id="carIn53971:1" depart="57640.00" departLane="272042143_1" departPos="5.10" departSpeed="0.00" departDelay="0.80" arrival="57694.00" arrivalLane="24634414#1_1" arrivalPos="162.19" arrivalSpeed="7.62" duration="54.00" routeLength="493.04" waitingTime="0.00" waitingCount="0" stopTime="0.00" timeLoss="8.42" rerouteNo="1" devices="tripinfo_carIn53971:1 routing_carIn53971:1 emissions_carIn53971:1" vType="default_016" speedFactor="1.01" vaporized="">
        <emissions CO_abs="2301.671390" CO2_abs="135167.045559" HC_abs="13.644879" PMx_abs="2.365330" NOx_abs="55.330127" fuel_abs="58.102734" electricity_abs="0"/>
    </tripinfo>
    <tripinfo id="h12244c1:3" depart="57612.00" departLane="315358244_1" departPos="5.10" departSpeed="0.00" departDelay="0.40" arrival="57707.00" arrivalLane="386687235_1" arrivalPos="80.84" arrivalSpeed="13.23" duration="95.00" routeLength="1186.14" waitingTime="0.00" waitingCount="0" stopTime="0.00" timeLoss="8.95" rerouteNo="1" devices="tripinfo_h12244c1:3 routing_h12244c1:3 emissions_h12244c1:3" vType="default_016" speedFactor="1.00" vaporized="">
        <emissions CO_abs="2442.411867" CO2_abs="225083.411947" HC_abs="16.330503" PMx_abs="3.382482" NOx_abs="86.795855" fuel_abs="96.753908" electricity_abs="0"/>
    </tripinfo>
    <tripinfo id="carIn80064:1" depart="57603.00" departLane="128361109#1_1" departPos="5.10" departSpeed="0.00" departDelay="0.40" arrival="57712.00" arrivalLane="-315358254#1_1" arrivalPos="137.16" arrivalSpeed="15.71" duration="109.00" routeLength="1587.97" waitingTime="4.00" waitingCount="1" stopTime="0.00" timeLoss="32.90" rerouteNo="1" devices="tripinfo_carIn80064:1 routing_carIn80064:1 emissions_carIn80064:1" vType="default_016" speedFactor="1.18" vaporized="">
        <emissions CO_abs="7528.414986" CO2_abs="509674.817915" HC_abs="46.545329" PMx_abs="10.386899" NOx_abs="212.154178" fuel_abs="219.085549" electricity_abs="0"/>
    </tripinfo>
    <tripinfo id="S5R_frequency1.2" depart="57612.00" departLane="315358250#0_1" departPos="12.10" departSpeed="0.00" departDelay="0.40" arrival="57712.00" arrivalLane="386687235_1" arrivalPos="80.84" arrivalSpeed="13.22" duration="100.00" routeLength="1115.62" waitingTime="0.00" waitingCount="0" stopTime="0.00" timeLoss="18.78" rerouteNo="1" devices="tripinfo_S5R_frequency1.2 routing_S5R_frequency1.2 emissions_S5R_frequency1.2" vType="bus" speedFactor="1.00" vaporized="">
        <emissions CO_abs="2006.454419" CO2_abs="1262190.932044" HC_abs="419.803792" PMx_abs="215.018336" NOx_abs="9783.728350" fuel_abs="538.308984" electricity_abs="0"/>
    </tripinfo>
    <tripinfo id="h9563c2:5" depart="57631.00" departLane="315358244_1" departPos="5.10" departSpeed="0.00" departDelay="0.70" arrival="57714.00" arrivalLane="386687235_1" arrivalPos="80.84" arrivalSpeed="16.22" duration="83.00" routeLength="1186.14" waitingTime="0.00" waitingCount="0" stopTime="0.00" timeLoss="9.79" rerouteNo="1" devices="tripinfo_h9563c2:5 routing_h9563c2:5 emissions_h9563c2:5" vType="default_016" speedFactor="1.18" vaporized="">
        <emissions CO_abs="2517.001481" CO2_abs="241851.377310" HC_abs="16.812599" PMx_abs="3.886688" NOx_abs="93.652760" fuel_abs="103.961344" electricity_abs="0"/>
    </tripinfo>
    <tripinfo id="h7800c1:5" depart="57696.00" departLane="-447569998#1_1" departPos="5.10" departSpeed="0.00" departDelay="0.00" arrival="57719.00" arrivalLane="-447569998#1_1" arrivalPos="180.76" arrivalSpeed="8.34" duration="23.00" routeLength="175.66" waitingTime="0.00" waitingCount="0" stopTime="0.00" timeLoss="3.08" rerouteNo="1" devices="tripinfo_h7800c1:5 routing_h7800c1:5 emissions_h7800c1:5" vType="default_016" speedFactor="1.07" vaporized="">
        <emissions CO_abs="1049.709134" CO2_abs="47515.313095" HC_abs="5.874443" PMx_abs="0.793384" NOx_abs="19.403545" fuel_abs="20.425115" electricity_abs="0"/>
    </tripinfo>
    <tripinfo id="h3688c1:1" depart="57625.00" departLane="201201950#1_1" departPos="5.10" departSpeed="0.00" departDelay="0.00" arrival="57721.00" arrivalLane="32978638#0_1" arrivalPos="49.29" arrivalSpeed="13.66" duration="96.00" routeLength="1089.75" waitingTime="1.00" waitingCount="1" stopTime="0.00" timeLoss="15.67" rerouteNo="1" devices="tripinfo_h3688c1:1 routing_h3688c1:1 emissions_h3688c1:1" vType="default_016" speedFactor="1.00" vaporized="">
        <emissions CO_abs="3512.118149" CO2_abs="249792.159512" HC_abs="21.859524" PMx_abs="4.281117" NOx_abs="100.727331" fuel_abs="107.374942" electricity_abs="0"/>
    </tripinfo>
    <tripinfo id="h317c2:1" depart="57707.00" departLane="-32978638#0_1" departPos="5.10" departSpeed="0.00" departDelay="0.10" arrival="57744.00" arrivalLane="-266565295#5_1" arrivalPos="172.76" arrivalSpeed="14.23" duration="37.00" routeLength="370.53" waitingTime="2.00" waitingCount="1" stopTime="0.00" timeLoss="10.65" rerouteNo="1" devices="tripinfo_h317c2:1 routing_h317c2:1 emissions_h317c2:1" vType="default_016" speedFactor="1.03" vaporized="">
        <emissions CO_abs="2234.965392" CO2_abs="121128.085602" HC_abs="13.046940" PMx_abs="2.319635" NOx_abs="50.799687" fuel_abs="52.067815" electricity_abs="0"/>
    </tripinfo>
    <tripinfo id="h3568c1:3" depart="57656.00" departLane="266565295#5_1" departPos="5.10" departSpeed="0.00" departDelay="0.80" arrival="57745.00" arrivalLane="-24634415_1" arrivalPos="62.03" arrivalSpeed="14.24" duration="89.00" routeLength="807.40" waitingTime="9.00" waitingCount="1" stopTime="0.00" timeLoss="27.37" rerouteNo="1" devices="tripinfo_h3568c1:3 routing_h3568c1:3 emissions_h3568c1:3" vType="default_016" speedFactor="1.05" vaporized="">
        <emissions CO_abs="4624.032355" CO2_abs="256047.728019" HC_abs="27.016920" PMx_abs="4.783784" NOx_abs="106.429464" fuel_abs="110.064133" electricity_abs="0"/>
    </tripinfo>
    <tripinfo id="h7181c1:1" depart="57660.00" departLane="315358254#0_1" departPos="5.10" departSpeed="0.00" departDelay="0.10" arrival="57751.00" arrivalLane="306240162#0_0" arrivalPos="220.43" arrivalSpeed="14.97" duration="91.00" routeLength="932.35" waitingTime="19.00" waitingCount="1" stopTime="0.00" timeLoss="37.76" rerouteNo="1" devices="tripinfo_h7181c1:1 routing_h7181c1:1 emissions_h7181c1:1" vType="default_016" speedFactor="0.97" vaporized="">
        <emissions CO_abs="6442.234294" CO2_abs="317880.435861" HC_abs="36.849299" PMx_abs="6.325402" NOx_abs="132.855997" fuel_abs="136.643610" electricity_abs="0"/>
    </tripinfo>
    <tripinfo id="carIn30817:1" depart="57681.00" departLane="315358244_1" departPos="5.10" departSpeed="0.00" departDelay="0.20" arrival="57752.00" arrivalLane="447569997#1_1" arrivalPos="180.93" arrivalSpeed="7.92" duration="71.00" routeLength="718.04" waitingTime="0.00" waitingCount="0" stopTime="0.00" timeLoss="7.98" rerouteNo="1" devices="tripinfo_carIn30817:1 routing_carIn30817:1 emissions_carIn30817:1" vType="default_016" speedFactor="0.99" vaporized="">
        <emissions CO_abs="2170.644939" CO2_abs="136958.150955" HC_abs="13.059366" PMx_abs="2.225798" NOx_abs="54.716310" fuel_abs="58.872804" electricity_abs="0"/>
    </tripinfo>
    <tripinfo id="h3326c1:2" depart="57656.00" departLane="22716069#0_1" departPos="5.10" departSpeed="0.00" departDelay="0.00" arrival="57755.00" arrivalLane="24634517#13_1" arrivalPos="111.62" arrivalSpeed="15.09" duration="99.00" routeLength="1312.81" waitingTime="0.00" waitingCount="0" stopTime="0.00" timeLoss="13.75" rerouteNo="1" devices="tripinfo_h3326c1:2 routing_h3326c1:2 emissions_h3326c1:2" vType="default_016" speedFactor="1.15" vaporized="">
        <emissions CO_abs="4106.159375" CO2_abs="327281.129700" HC_abs="26.408932" PMx_abs="5.859878" NOx_abs="132.466071" fuel_abs="140.683428" electricity_abs="0"/>
    </tripinfo>
    <tripinfo id="h4538c1:1" depart="57701.00" departLane="-10427692#1_1" departPos="5.10" departSpeed="0.00" departDelay="0.00" arrival="57755.00" arrivalLane="-128361102#1_1" arrivalPos="274.68" arrivalSpeed="13.79" duration="54.00" routeLength="440.74" waitingTime="12.00" waitingCount="1" stopTime="0.00" timeLoss="22.87" rerouteNo="1" devices="tripinfo_h4538c1:1 routing_h4538c1:1 emissions_h4538c1:1" vType="default_016" speedFactor="1.03" vaporized="">
        <emissions CO_abs="2982.988350" CO2_abs="141612.819182" HC_abs="16.897021" PMx_abs="2.608218" NOx_abs="58.338124" fuel_abs="60.873843" electricity_abs="0"/>
    </tripinfo>
    <tripinfo id="carIn22761:1" depart="57616.00" departLane="-306240162#1_0" departPos="5.10" departSpeed="0.00" departDelay="2.10" arrival="57762.00" arrivalLane="399835085#1_1" arrivalPos="212.23" arrivalSpeed="8.58" duration="146.00" routeLength="1093.26" waitingTime="55.00" waitingCount="1" stopTime="0.00" timeLoss="71.50" rerouteNo="1" devices="tripinfo_carIn22761:1 routing_carIn22761:1 emissions_carIn22761:1" vType="default_016" speedFactor="1.05" vaporized="">
        <emissions CO_abs="12418.502291" CO2_abs="400038.047592" HC_abs="65.961751" PMx_abs="8.299150" NOx_abs="169.556028" fuel_abs="171.962917" electricity_abs="0"/>
    </tripinfo>
    <tripinfo id="h5979c1:5" depart="57669.00" departLane="399835085#1_1" departPos="5.10" departSpeed="0.00" departDelay="0.00" arrival="57772.00" arrivalLane="-315358254#1_1" arrivalPos="137.16" arrivalSpeed="13.00" duration="103.00" routeLength="659.33" waitingTime="14.00" waitingCount="1" stopTime="0.00" timeLoss="27.86" rerouteNo="1" devices="tripinfo_h5979c1:5 routing_h5979c1:5 emissions_h5979c1:5" vType="default_016" speedFactor="0.97" vaporized="">
        <emissions CO_abs="5234.030215" CO2_abs="214050.618166" HC_abs="28.767062" PMx_abs="3.647690" NOx_abs="87.610643" fuel_abs="92.012971" electricity_abs="0"/>
    </tripinfo>
    <tripinfo id="carIn28951:1" depart="57606.00" departLane="10425609#0_1" departPos="5.10" departSpeed="0.00" departDelay="0.20" arrival="57775.00" arrivalLane="-128361102#1_1" arrivalPos="274.68" arrivalSpeed="13.42" duration="169.00" routeLength="2113.04" waitingTime="0.00" waitingCount="0" stopTime="0.00" timeLoss="18.63" rerouteNo="1" devices="tripinfo_carIn28951:1 routing_carIn28951:1 emissions_carIn28951:1" vType="default_016" speedFactor="1.04" vaporized="">
        <emissions CO_abs="4751.950429" CO2_abs="415951.024753" HC_abs="31.335956" PMx_abs="6.706153" NOx_abs="163.563001" fuel_abs="178.799364" electricity_abs="0"/>
    </tripinfo>
    <tripinfo id="carIn118591:1" depart="57689.00" departLane="315358244_1" departPos="5.10" departSpeed="0.00" departDelay="0.20" arrival="57776.00" arrivalLane="386687235_1" arrivalPos="80.84" arrivalSpeed="15.10" duration="87.00" routeLength="1186.14" waitingTime="0.00" waitingCount="0" stopTime="0.00" timeLoss="8.36" rerouteNo="1" devices="tripinfo_carIn118591:1 routing_carIn118591:1 emissions_carIn118591:1" vType="default_016" speedFactor="1.10" vaporized="">
        <emissions CO_abs="2530.037878" CO2_abs="239818.491768" HC_abs="17.018304" PMx_abs="3.838131" NOx_abs="93.365708" fuel_abs="103.087525" electricity_abs="0"/>
    </tripinfo>
    <tripinfo id="h330c1:1" depart="57736.00" departLane="-32978638#0_1" departPos="5.10" departSpeed="0.00" departDelay="0.20" arrival="57776.00" arrivalLane="-266565295#5_1" arrivalPos="172.76" arrivalSpeed="12.30" duration="40.00" routeLength="370.53" waitingTime="1.00" waitingCount="1" stopTime="0.00" timeLoss="10.89" rerouteNo="1" devices="tripinfo_h330c1:1 routing_h330c1:1 emissions_h330c1:1" vType="default_016" speedFactor="0.94" vaporized="">
        <emissions CO_abs="2017.260701" CO2_abs="107400.515792" HC_abs="11.718016" PMx_abs="2.008077" NOx_abs="44.851353" fuel_abs="46.167008" electricity_abs="0"/>
    </tripinfo>
    <tripinfo id="carIn86816:1" depart="57617.00" departLane="128361102#0_1" departPos="5.10" departSpeed="0.00" departDelay="0.80" arrival="57781.00" arrivalLane="201956811#0_1" arrivalPos="40.40" arrivalSpeed="14.20" duration="164.00" routeLength="2067.33" waitingTime="0.00" waitingCount="0" stopTime="0.00" timeLoss="17.78" rerouteNo="1" devices="tripinfo_carIn86816:1 routing_carIn86816:1 emissions_carIn86816:1" vType="default_016" speedFactor="1.04" vaporized="">
        <emissions CO_abs="4852.591424" CO2_abs="424524.744243" HC_abs="32.024298" PMx_abs="6.912065" NOx_abs="167.400197" fuel_abs="182.484734" electricity_abs="0"/>
    </tripinfo>
    <tripinfo id="carIn107084:1" depart="57601.00" departLane="124812856#0_1" departPos="5.10" departSpeed="0.00" departDelay="0.70" arrival="57784.00" arrivalLane="-128361102#1_1" arrivalPos="274.68" arrivalSpeed="13.73" duration="183.00" routeLength="2250.49" waitingTime="2.00" waitingCount="1" stopTime="0.00" timeLoss="28.40" rerouteNo="1" devices="tripinfo_carIn107084:1 routing_carIn107084:1 emissions_carIn107084:1" vType="default_016" speedFactor="1.06" vaporized="">
        <emissions CO_abs="5698.782775" CO2_abs="464316.605938" HC_abs="36.750848" PMx_abs="7.717364" NOx_abs="184.204472" fuel_abs="199.589596" electricity_abs="0"/>
    </tripinfo>
    <tripinfo id="h645c1:1" depart="57622.00" departLane="266565295#5_1" departPos="5.10" departSpeed="0.00" departDelay="0.40" arrival="57785.00" arrivalLane="-315358244_1" arrivalPos="33.95" arrivalSpeed="11.67" duration="163.00" routeLength="1910.83" waitingTime="0.00" waitingCount="0" stopTime="0.00" timeLoss="13.70" rerouteNo="1" devices="tripinfo_h645c1:1 routing_h645c1:1 emissions_h645c1:1" vType="default_016" speedFactor="0.93" vaporized="">
        <emissions CO_abs="3646.838621" CO2_abs="337143.799163" HC_abs="24.385500" PMx_abs="4.820682" NOx_abs="128.962844" fuel_abs="144.924278" electricity_abs="0"/>
    </tripinfo>
    <tripinfo id="h3154c1:1" depart="57658.00" departLane="24634507_1" departPos="5.10" departSpeed="0.00" departDelay="0.00" arrival="57788.00" arrivalLane="-266565295#5_1" arrivalPos="172.76" arrivalSpeed="12.74" duration="130.00" routeLength="1206.22" waitingTime="14.00" waitingCount="2" stopTime="0.00" timeLoss="36.96" rerouteNo="1" devices="tripinfo_h3154c1:1 routing_h3154c1:1 emissions_h3154c1:1" vType="default_016" speedFactor="0.96" vaporized="">
        <emissions CO_abs="4846.712931" CO2_abs="303651.887326" HC_abs="29.173237" PMx_abs="5.179205" NOx_abs="122.676990" fuel_abs="130.527421" electricity_abs="0"/>
    </tripinfo>
    <tripinfo id="carIn27009:1" depart="57673.00" departLane="-447569998#1_1" departPos="5.10" departSpeed="0.00" departDelay="0.50" arrival="57789.00" arrivalLane="-26677539_1" arrivalPos="152.75" arrivalSpeed="6.67" duration="116.00" routeLength="699.63" waitingTime="9.00" waitingCount="1" stopTime="0.00" timeLoss="26.94" rerouteNo="1" devices="tripinfo_carIn27009:1 routing_carIn27009:1 emissions_carIn27009:1" vType="default_015" speedFactor="0.94" vaporized="">
        <emissions CO_abs="5219.209782" CO2_abs="209023.107314" HC_abs="28.558263" PMx_abs="3.486046" NOx_abs="85.556064" fuel_abs="89.851975" electricity_abs="0"/>
    </tripinfo>
    <tripinfo id="carIn12365:1" depart="57713.00" departLane="315358244_1" departPos="5.10" departSpeed="0.00" departDelay="0.50" arrival="57790.00" arrivalLane="447569997#1_1" arrivalPos="180.93" arrivalSpeed="8.52" duration="77.00" routeLength="718.04" waitingTime="5.00" waitingCount="1" stopTime="0.00" timeLoss="17.78" rerouteNo="1" devices="tripinfo_carIn12365:1 routing_carIn12365:1 emissions_carIn12365:1" vType="default_016" speedFactor="1.04" vaporized="">
        <emissions CO_abs="2955.692638" CO2_abs="174987.700647" HC_abs="17.501777" PMx_abs="2.873157" NOx_abs="69.941949" fuel_abs="75.220303" electricity_abs="0"/>
    </tripinfo>
    <tripinfo id="carIn50326:1" depart="57651.00" departLane="128361102#0_1" departPos="5.10" departSpeed="0.00" departDelay="0.30" arrival="57793.00" arrivalLane="18809673#0_1" arrivalPos="473.56" arrivalSpeed="13.61" duration="142.00" routeLength="1591.07" waitingTime="0.00" waitingCount="0" stopTime="0.00" timeLoss="16.19" rerouteNo="1" devices="tripinfo_carIn50326:1 routing_carIn50326:1 emissions_carIn50326:1" vType="default_016" speedFactor="1.03" vaporized="">
        <emissions CO_abs="4427.604095" CO2_abs="333731.636206" HC_abs="27.883062" PMx_abs="5.255766" NOx_abs="131.231488" fuel_abs="143.457435" electricity_abs="0"/>
    </tripinfo>
    <tripinfo id="carIn129809:1" depart="57729.00" departLane="-447569998#1_1" departPos="5.10" departSpeed="0.00" departDelay="1.00" arrival="57793.00" arrivalLane="-315358244_1" arrivalPos="33.95" arrivalSpeed="14.42" duration="64.00" routeLength="706.49" waitingTime="0.00" waitingCount="0" stopTime="0.00" timeLoss="9.49" rerouteNo="1" devices="tripinfo_carIn129809:1 routing_carIn129809:1 emissions_carIn129809:1" vType="default_015" speedFactor="1.11" vaporized="">
        <emissions CO_abs="2364.802617" CO2_abs="149630.342965" HC_abs="14.229859" PMx_abs="2.479978" NOx_abs="59.757203" fuel_abs="64.320021" electricity_abs="0"/>
    </tripinfo>
    <tripinfo id="carIn48184:1" depart="57613.00" departLane="-306240162#1_0" departPos="5.10" departSpeed="0.00" departDelay="0.70" arrival="57794.00" arrivalLane="386687235_1" arrivalPos="80.84" arrivalSpeed="13.43" duration="181.00" routeLength="2257.41" waitingTime="5.00" waitingCount="1" stopTime="0.00" timeLoss="35.08" rerouteNo="1" devices="tripinfo_carIn48184:1 routing_carIn48184:1 emissions_carIn48184:1" vType="default_016" speedFactor="1.02" vaporized="">
        <emissions CO_abs="6929.929001" CO2_abs="524081.735304" HC_abs="43.863528" PMx_abs="9.253845" NOx_abs="210.105259" fuel_abs="225.279771" electricity_abs="0"/>
    </tripinfo>
    <tripinfo id="carIn82220:1" depart="57619.00" departLane="-306240162#1_0" departPos="5.10" departSpeed="0.00" departDelay="3.50" arrival="57794.00" arrivalLane="386687235_2" arrivalPos="80.84" arrivalSpeed="13.62" duration="175.00" routeLength="2257.41" waitingTime="0.00" waitingCount="0" stopTime="0.00" timeLoss="25.36" rerouteNo="1" devices="tripinfo_carIn82220:1 routing_carIn82220:1 emissions_carIn82220:1" vType="default_016" speedFactor="1.00" vaporized="">
        <emissions CO_abs="6212.182208" CO2_abs="488594.631354" HC_abs="39.710917" PMx_abs="8.432277" NOx_abs="195.148202" fuel_abs="210.025448" electricity_abs="0"/>
    </tripinfo>
    <tripinfo id="carIn107282:1" depart="57749.00" departLane="-447569998#1_1" departPos="5.10" departSpeed="0.00" departDelay="0.00" arrival="57794.00" arrivalLane="315358242#0_1" arrivalPos="165.37" arrivalSpeed="13.71" duration="45.00" routeLength="448.50" waitingTime="0.00" waitingCount="0" stopTime="0.00" timeLoss="4.82" rerouteNo="1" devices="tripinfo_carIn107282:1 routing_carIn107282:1 emissions_carIn107282:1" vType="default_016" speedFactor="1.04" vaporized="">
        <emissions CO_abs="1749.233365" CO2_abs="103611.824668" HC_abs="10.372913" PMx_abs="1.711427" NOx_abs="41.661913" fuel_abs="44.538600" electricity_abs="0"/>
    </tripinfo>
    <tripinfo id="carIn81860:1" depart="57712.00" departLane="128361102#0_1" departPos="5.10" departSpeed="0.00" departDelay="0.60" arrival="57802.00" arrivalLane="-24634517#17_1" arrivalPos="6.43" arrivalSpeed="8.48" duration="90.00" routeLength="1229.64" waitingTime="2.00" waitingCount="1" stopTime="0.00" timeLoss="23.31" rerouteNo="1" devices="tripinfo_carIn81860:1 routing_carIn81860:1 emissions_carIn81860:1" vType="default_016" speedFactor="1.36" vaporized="">
        <emissions CO_abs="4668.410387" CO2_abs="331800.955683" HC_abs="29.162589" PMx_abs="6.376906" NOx_abs="136.185459" fuel_abs="142.626162" electricity_abs="0"/>
    </tripinfo>
    <tripinfo id="carIn82278:1" depart="57702.00" departLane="-306240162#1_0" departPos="5.10" departSpeed="0.00" departDelay="0.70" arrival="57804.00" arrivalLane="399835085#1_1" arrivalPos="212.23" arrivalSpeed="7.44" duration="102.00" routeLength="1093.26" waitingTime="2.00" waitingCount="1" stopTime="0.00" timeLoss="21.36" rerouteNo="1" devices="tripinfo_carIn82278:1 routing_carIn82278:1 emissions_carIn82278:1" vType="default_016" speedFactor="0.98" vaporized="">
        <emissions CO_abs="5207.968533" CO2_abs="317953.503583" HC_abs="31.242979" PMx_abs="5.936378" NOx_abs="130.979882" fuel_abs="136.674505" electricity_abs="0"/>
    </tripinfo>
    <tripinfo id="h11737c1:1" depart="57665.00" departLane="272042143_1" departPos="5.10" departSpeed="0.00" departDelay="1.50" arrival="57806.00" arrivalLane="-315358254#1_1" arrivalPos="137.16" arrivalSpeed="15.44" duration="141.00" routeLength="1596.88" waitingTime="23.00" waitingCount="1" stopTime="0.00" timeLoss="43.50" rerouteNo="1" devices="tripinfo_h11737c1:1 routing_h11737c1:1 emissions_h11737c1:1" vType="default_016" speedFactor="1.20" vaporized="">
        <emissions CO_abs="7284.741558" CO2_abs="392856.092176" HC_abs="42.371368" PMx_abs="7.359727" NOx_abs="160.894792" fuel_abs="168.872685" electricity_abs="0"/>
    </tripinfo>
    <tripinfo id="carIn77943:1" depart="57608.00" departLane="124812856#0_1" departPos="5.10" departSpeed="0.00" departDelay="2.50" arrival="57808.00" arrivalLane="-128361102#1_1" arrivalPos="274.68" arrivalSpeed="13.22" duration="200.00" routeLength="2250.49" waitingTime="0.00" waitingCount="0" stopTime="0.00" timeLoss="29.18" rerouteNo="1" devices="tripinfo_carIn77943:1 routing_carIn77943:1 emissions_carIn77943:1" vType="default_016" speedFactor="0.96" vaporized="">
        <emissions CO_abs="5701.787433" CO2_abs="438007.436379" HC_abs="36.158173" PMx_abs="6.984645" NOx_abs="173.244419" fuel_abs="188.281028" electricity_abs="0"/>
    </tripinfo>
    <tripinfo id="carIn126288:1" depart="57674.00" departLane="272042143_1" departPos="5.10" departSpeed="0.00" departDelay="0.00" arrival="57809.00" arrivalLane="-315358254#1_1" arrivalPos="137.16" arrivalSpeed="14.05" duration="135.00" routeLength="1596.88" waitingTime="4.00" waitingCount="1" stopTime="0.00" timeLoss="21.72" rerouteNo="1" devices="tripinfo_carIn126288:1 routing_carIn126288:1 emissions_carIn126288:1" vType="default_016" speedFactor="1.03" vaporized="">
        <emissions CO_abs="4462.311924" CO2_abs="342432.363005" HC_abs="28.328273" PMx_abs="5.786071" NOx_abs="136.834414" fuel_abs="147.196886" electricity_abs="0"/>
    </tripinfo>
    <tripinfo id="carIn81046:1" depart="57611.00" departLane="124812856#0_1" departPos="5.10" departSpeed="0.00" departDelay="2.50" arrival="57810.00" arrivalLane="-128361102#1_1" arrivalPos="274.68" arrivalSpeed="13.44" duration="199.00" routeLength="2250.49" waitingTime="0.00" waitingCount="0" stopTime="0.00" timeLoss="37.22" rerouteNo="1" devices="tripinfo_carIn81046:1 routing_carIn81046:1 emissions_carIn81046:1" vType="default_016" speedFactor="1.02" vaporized="">
        <emissions CO_abs="6850.416313" CO2_abs="502621.792450" HC_abs="42.993745" PMx_abs="8.596362" NOx_abs="202.860046" fuel_abs="216.055373" electricity_abs="0"/>
    </tripinfo>
    <tripinfo id="carIn77438:1" depart="57614.00" departLane="124812856#0_1" departPos="5.10" departSpeed="0.00" departDelay="1.10" arrival="57811.00" arrivalLane="-128361102#1_1" arrivalPos="274.68" arrivalSpeed="13.83" duration="197.00" routeLength="2250.49" waitingTime="0.00" waitingCount="0" stopTime="0.00" timeLoss="41.38" rerouteNo="1" devices="tripinfo_carIn77438:1 routing_carIn77438:1 emissions_carIn77438:1" vType="default_016" speedFactor="1.06" vaporized="">
        <emissions CO_abs="7029.795027" CO2_abs="533072.290421" HC_abs="44.505555" PMx_abs="8.958105" NOx_abs="213.703610" fuel_abs="229.144810" electricity_abs="0"/>
    </tripinfo>
    <tripinfo id="h19804c1:3" depart="57617.00" departLane="124812856#0_1" departPos="5.10" departSpeed="0.00" departDelay="1.50" arrival="57817.00" arrivalLane="-128361102#1_1" arrivalPos="274.68" arrivalSpeed="12.89" duration="200.00" routeLength="2250.49" waitingTime="0.00" waitingCount="0" stopTime="0.00" timeLoss="28.92" rerouteNo="1" devices="tripinfo_h19804c1:3 routing_h19804c1:3 emissions_h19804c1:3" vType="default_016" speedFactor="0.97" vaporized="">
        <emissions CO_abs="6048.705383" CO2_abs="462710.169484" HC_abs="38.298942" PMx_abs="7.413169" NOx_abs="183.109946" fuel_abs="198.899675" electricity_abs="0"/>
    </tripinfo>
    <tripinfo id="carIn102915:1" depart="57643.00" departLane="128361102#0_1" departPos="5.10" departSpeed="0.00" departDelay="0.40" arrival="57822.00" arrivalLane="201956811#0_1" arrivalPos="40.40" arrivalSpeed="12.21" duration="179.00" routeLength="2067.33" waitingTime="0.00" waitingCount="0" stopTime="0.00" timeLoss="23.20" rerouteNo="1" devices="tripinfo_carIn102915:1 routing_carIn102915:1 emissions_carIn102915:1" vType="default_016" speedFactor="0.97" vaporized="">
        <emissions CO_abs="5299.225279" CO2_abs="410397.989155" HC_abs="33.696367" PMx_abs="6.642354" NOx_abs="162.621236" fuel_abs="176.412730" electricity_abs="0"/>
    </tripinfo>
    <tripinfo id="carIn12858:1" depart="57661.00" departLane="128361109#1_1" departPos="5.10" departSpeed="0.00" departDelay="0.90" arrival="57823.00" arrivalLane="399835085#1_1" arrivalPos="212.23" arrivalSpeed="7.73" duration="162.00" routeLength="1738.12" waitingTime="14.00" waitingCount="3" stopTime="0.00" timeLoss="52.17" rerouteNo="1" devices="tripinfo_carIn12858:1 routing_carIn12858:1 emissions_carIn12858:1" vType="default_016" speedFactor="1.05" vaporized="">
        <emissions CO_abs="9106.146825" CO2_abs="533459.463136" HC_abs="54.255138" PMx_abs="10.580435" NOx_abs="222.272087" fuel_abs="229.310755" electricity_abs="0"/>
    </tripinfo>
    <tripinfo id="randUni33724:1" depart="57646.00" departLane="128361102#0_1" departPos="5.10" departSpeed="0.00" departDelay="1.20" arrival="57825.00" arrivalLane="201956811#0_1" arrivalPos="40.40" arrivalSpeed="13.44" duration="179.00" routeLength="2067.33" waitingTime="0.00" waitingCount="0" stopTime="0.00" timeLoss="32.16" rerouteNo="1" devices="tripinfo_randUni33724:1 routing_randUni33724:1 emissions_randUni33724:1" vType="random_016" speedFactor="1.03" vaporized="">
        <emissions CO_abs="6154.006477" CO2_abs="469414.507000" HC_abs="38.992754" PMx_abs="7.777182" NOx_abs="187.085482" fuel_abs="201.781247" electricity_abs="0"/>
    </tripinfo>
    <tripinfo id="h3864c1:3" depart="57678.00" departLane="24693977#1_1" departPos="5.10" departSpeed="0.00" departDelay="0.00" arrival="57829.00" arrivalLane="201956820_1" arrivalPos="48.33" arrivalSpeed="15.35" duration="151.00" routeLength="1574.85" waitingTime="5.00" waitingCount="1" stopTime="0.00" timeLoss="34.49" rerouteNo="1" devices="tripinfo_h3864c1:3 routing_h3864c1:3 emissions_h3864c1:3" vType="default_016" speedFactor="1.11" vaporized="">
        <emissions CO_abs="7556.999101" CO2_abs="478266.126279" HC_abs="45.624664" PMx_abs="8.672245" NOx_abs="196.202003" fuel_abs="205.586048" electricity_abs="0"/>
    </tripinfo>
    <tripinfo id="carIn116184:1" depart="57627.00" departLane="-306240162#1_0" departPos="5.10" departSpeed="0.00" departDelay="0.10" arrival="57833.00" arrivalLane="386687235_1" arrivalPos="80.84" arrivalSpeed="14.41" duration="206.00" routeLength="2257.41" waitingTime="13.00" waitingCount="3" stopTime="0.00" timeLoss="71.34" rerouteNo="1" devices="tripinfo_carIn116184:1 routing_carIn116184:1 emissions_carIn116184:1" vType="default_016" speedFactor="1.10" vaporized="">
        <emissions CO_abs="8437.099104" CO2_abs="568544.903651" HC_abs="51.594209" PMx_abs="10.092681" NOx_abs="230.332845" fuel_abs="244.393005" electricity_abs="0"/>
    </tripinfo>