<?xml version="1.0" encoding="UTF-8"?>

<!-- generated on 2021-10-26 12:13:49 by Eclipse SUMO sumo Version 1.10.0
<configuration xmlns:xsi="http://www.w3.org/2001/XMLSchema-instance" xsi:noNamespaceSchemaLocation="http://sumo.dlr.de/xsd/sumoConfiguration.xsd">

    <input>
        <net-file value="/Users/behradkoohy/sumo-scratchpad/RESCO/environments/ingolstadt21/ingolstadt21.net.xml"/>
        <route-files value="/Users/behradkoohy/sumo-scratchpad/RESCO/environments/ingolstadt21/ingolstadt21.rou.xml"/>
    </input>

    <output>
        <tripinfo-output value="/Users/behradkoohy/sumo-scratchpad/RESCO/logs/MAXWAVE-tr0-ingolstadt21-21-wave-wait/tripinfo_81.xml"/>
        <tripinfo-output.write-unfinished value="true"/>
    </output>

    <time>
        <begin value="57600"/>
        <end value="61200"/>
    </time>

    <processing>
        <time-to-teleport value="-1"/>
    </processing>

    <report>
        <no-warnings value="true"/>
        <no-step-log value="true"/>
    </report>

    <emissions>
        <device.emissions.probability value="1"/>
    </emissions>

    <traci_server>
        <remote-port value="58061"/>
    </traci_server>

    <random_number>
        <random value="true"/>
    </random_number>

</configuration>
-->

<tripinfos xmlns:xsi="http://www.w3.org/2001/XMLSchema-instance" xsi:noNamespaceSchemaLocation="http://sumo.dlr.de/xsd/tripinfo_file.xsd">
    <tripinfo id="h15454c2:3" depart="57612.00" departLane="24608844_1" departPos="5.10" departSpeed="0.00" departDelay="0.50" arrival="57648.00" arrivalLane="32978638#0_1" arrivalPos="49.29" arrivalSpeed="15.90" duration="36.00" routeLength="354.79" waitingTime="0.00" waitingCount="0" stopTime="0.00" timeLoss="6.51" rerouteNo="1" devices="tripinfo_h15454c2:3 routing_h15454c2:3 emissions_h15454c2:3" vType="default_016" speedFactor="1.15" vaporized="">
        <emissions CO_abs="2192.818734" CO2_abs="130556.947479" HC_abs="13.069714" PMx_abs="2.423539" NOx_abs="54.294518" fuel_abs="56.120810" electricity_abs="0"/>
    </tripinfo>
    <tripinfo id="carIn60260:1" depart="57606.00" departLane="315358254#0_1" departPos="5.10" departSpeed="0.00" departDelay="0.90" arrival="57660.00" arrivalLane="399835085#1_1" arrivalPos="212.23" arrivalSpeed="7.17" duration="54.00" routeLength="430.98" waitingTime="0.00" waitingCount="0" stopTime="0.00" timeLoss="6.50" rerouteNo="1" devices="tripinfo_carIn60260:1 routing_carIn60260:1 emissions_carIn60260:1" vType="default_016" speedFactor="0.97" vaporized="">
        <emissions CO_abs="2350.932492" CO2_abs="119314.118598" HC_abs="13.447617" PMx_abs="1.901427" NOx_abs="47.947815" fuel_abs="51.288741" electricity_abs="0"/>
    </tripinfo>
    <tripinfo id="carIn53971:1" depart="57640.00" departLane="272042143_1" departPos="5.10" departSpeed="0.00" departDelay="0.80" arrival="57703.00" arrivalLane="24634414#1_1" arrivalPos="162.19" arrivalSpeed="6.66" duration="63.00" routeLength="493.04" waitingTime="0.00" waitingCount="0" stopTime="0.00" timeLoss="8.68" rerouteNo="1" devices="tripinfo_carIn53971:1 routing_carIn53971:1 emissions_carIn53971:1" vType="default_016" speedFactor="0.84" vaporized="">
        <emissions CO_abs="2661.203529" CO2_abs="133458.340623" HC_abs="15.213072" PMx_abs="2.277341" NOx_abs="54.641817" fuel_abs="57.368614" electricity_abs="0"/>
    </tripinfo>
    <tripinfo id="S5R_frequency1.2" depart="57616.00" departLane="315358250#0_1" departPos="12.10" departSpeed="0.00" departDelay="4.40" arrival="57710.00" arrivalLane="386687235_1" arrivalPos="80.84" arrivalSpeed="13.58" duration="94.00" routeLength="1115.62" waitingTime="0.00" waitingCount="0" stopTime="0.00" timeLoss="12.56" rerouteNo="1" devices="tripinfo_S5R_frequency1.2 routing_S5R_frequency1.2 emissions_S5R_frequency1.2" vType="bus" speedFactor="1.00" vaporized="">
        <emissions CO_abs="1918.139330" CO2_abs="1219530.050411" HC_abs="405.797890" PMx_abs="206.182935" NOx_abs="9411.685750" fuel_abs="520.124517" electricity_abs="0"/>
    </tripinfo>
    <tripinfo id="h12244c1:3" depart="57612.00" departLane="315358244_1" departPos="5.10" departSpeed="0.00" departDelay="0.40" arrival="57713.00" arrivalLane="386687235_1" arrivalPos="80.84" arrivalSpeed="12.83" duration="101.00" routeLength="1186.14" waitingTime="0.00" waitingCount="0" stopTime="0.00" timeLoss="9.60" rerouteNo="1" devices="tripinfo_h12244c1:3 routing_h12244c1:3 emissions_h12244c1:3" vType="default_016" speedFactor="0.95" vaporized="">
        <emissions CO_abs="2796.426110" CO2_abs="251499.017243" HC_abs="18.532526" PMx_abs="3.761763" NOx_abs="97.193706" fuel_abs="108.108916" electricity_abs="0"/>
    </tripinfo>
    <tripinfo id="h3688c1:1" depart="57625.00" departLane="201201950#1_1" departPos="5.10" departSpeed="0.00" departDelay="0.00" arrival="57721.00" arrivalLane="32978638#0_1" arrivalPos="49.29" arrivalSpeed="13.81" duration="96.00" routeLength="1089.75" waitingTime="2.00" waitingCount="1" stopTime="0.00" timeLoss="16.76" rerouteNo="1" devices="tripinfo_h3688c1:1 routing_h3688c1:1 emissions_h3688c1:1" vType="default_016" speedFactor="1.01" vaporized="">
        <emissions CO_abs="3668.546393" CO2_abs="282344.746905" HC_abs="23.201717" PMx_abs="4.604097" NOx_abs="111.809061" fuel_abs="121.368039" electricity_abs="0"/>
    </tripinfo>
    <tripinfo id="h3568c1:3" depart="57656.00" departLane="266565295#5_1" departPos="5.10" departSpeed="0.00" departDelay="0.80" arrival="57722.00" arrivalLane="-24634415_1" arrivalPos="62.03" arrivalSpeed="16.52" duration="66.00" routeLength="807.40" waitingTime="0.00" waitingCount="0" stopTime="0.00" timeLoss="12.07" rerouteNo="1" devices="tripinfo_h3568c1:3 routing_h3568c1:3 emissions_h3568c1:3" vType="default_016" speedFactor="1.21" vaporized="">
        <emissions CO_abs="3403.295535" CO2_abs="229875.044175" HC_abs="20.921648" PMx_abs="4.322839" NOx_abs="94.936588" fuel_abs="98.813004" electricity_abs="0"/>
    </tripinfo>
    <tripinfo id="h7800c1:5" depart="57696.00" departLane="-447569998#1_1" departPos="5.10" departSpeed="0.00" departDelay="0.00" arrival="57730.00" arrivalLane="-447569998#1_1" arrivalPos="180.76" arrivalSpeed="5.63" duration="34.00" routeLength="175.66" waitingTime="0.00" waitingCount="0" stopTime="0.00" timeLoss="4.43" rerouteNo="1" devices="tripinfo_h7800c1:5 routing_h7800c1:5 emissions_h7800c1:5" vType="default_016" speedFactor="0.73" vaporized="">
        <emissions CO_abs="1607.708013" CO2_abs="54063.918469" HC_abs="8.558332" PMx_abs="0.939914" NOx_abs="22.473243" fuel_abs="23.240405" electricity_abs="0"/>
    </tripinfo>
    <tripinfo id="carIn80064:1" depart="57603.00" departLane="128361109#1_1" departPos="5.10" departSpeed="0.00" departDelay="0.40" arrival="57738.00" arrivalLane="-315358254#1_1" arrivalPos="137.16" arrivalSpeed="12.73" duration="135.00" routeLength="1587.97" waitingTime="12.00" waitingCount="2" stopTime="0.00" timeLoss="38.94" rerouteNo="1" devices="tripinfo_carIn80064:1 routing_carIn80064:1 emissions_carIn80064:1" vType="default_016" speedFactor="0.93" vaporized="">
        <emissions CO_abs="6916.209777" CO2_abs="457702.604498" HC_abs="42.348254" PMx_abs="8.596823" NOx_abs="187.281213" fuel_abs="196.746204" electricity_abs="0"/>
    </tripinfo>
    <tripinfo id="h9563c2:5" depart="57631.00" departLane="315358244_1" departPos="5.10" departSpeed="0.00" departDelay="0.70" arrival="57742.00" arrivalLane="386687235_1" arrivalPos="80.84" arrivalSpeed="11.37" duration="111.00" routeLength="1186.14" waitingTime="2.00" waitingCount="1" stopTime="0.00" timeLoss="13.21" rerouteNo="1" devices="tripinfo_h9563c2:5 routing_h9563c2:5 emissions_h9563c2:5" vType="default_016" speedFactor="0.88" vaporized="">
        <emissions CO_abs="2946.638132" CO2_abs="227126.405265" HC_abs="18.657169" PMx_abs="3.359328" NOx_abs="88.123045" fuel_abs="97.632511" electricity_abs="0"/>
    </tripinfo>
    <tripinfo id="h317c2:1" depart="57707.00" departLane="-32978638#0_1" departPos="5.10" departSpeed="0.00" departDelay="0.10" arrival="57744.00" arrivalLane="-266565295#5_1" arrivalPos="172.76" arrivalSpeed="14.52" duration="37.00" routeLength="370.53" waitingTime="2.00" waitingCount="1" stopTime="0.00" timeLoss="10.78" rerouteNo="1" devices="tripinfo_h317c2:1 routing_h317c2:1 emissions_h317c2:1" vType="default_016" speedFactor="1.07" vaporized="">
        <emissions CO_abs="2194.628557" CO2_abs="134990.475966" HC_abs="13.092308" PMx_abs="2.452784" NOx_abs="55.349649" fuel_abs="58.026642" electricity_abs="0"/>
    </tripinfo>
    <tripinfo id="carIn22761:1" depart="57616.00" departLane="-306240162#1_0" departPos="5.10" departSpeed="0.00" departDelay="2.10" arrival="57747.00" arrivalLane="399835085#1_1" arrivalPos="212.23" arrivalSpeed="6.65" duration="131.00" routeLength="1093.26" waitingTime="33.00" waitingCount="1" stopTime="0.00" timeLoss="46.93" rerouteNo="1" devices="tripinfo_carIn22761:1 routing_carIn22761:1 emissions_carIn22761:1" vType="default_016" speedFactor="0.92" vaporized="">
        <emissions CO_abs="8575.832835" CO2_abs="353322.914677" HC_abs="47.266479" PMx_abs="6.735017" NOx_abs="145.903084" fuel_abs="151.880502" electricity_abs="0"/>
    </tripinfo>
    <tripinfo id="h7181c1:1" depart="57660.00" departLane="315358254#0_1" departPos="5.10" departSpeed="0.00" departDelay="0.10" arrival="57751.00" arrivalLane="306240162#0_0" arrivalPos="220.43" arrivalSpeed="16.39" duration="91.00" routeLength="932.35" waitingTime="27.00" waitingCount="1" stopTime="0.00" timeLoss="38.95" rerouteNo="1" devices="tripinfo_h7181c1:1 routing_h7181c1:1 emissions_h7181c1:1" vType="default_016" speedFactor="0.99" vaporized="">
        <emissions CO_abs="7128.389772" CO2_abs="294158.126209" HC_abs="39.474472" PMx_abs="6.037581" NOx_abs="123.498677" fuel_abs="126.447166" electricity_abs="0"/>
    </tripinfo>
    <tripinfo id="carIn30817:1" depart="57681.00" departLane="315358244_1" departPos="5.10" departSpeed="0.00" departDelay="0.20" arrival="57751.00" arrivalLane="447569997#1_1" arrivalPos="180.93" arrivalSpeed="8.15" duration="70.00" routeLength="718.04" waitingTime="0.00" waitingCount="0" stopTime="0.00" timeLoss="7.27" rerouteNo="1" devices="tripinfo_carIn30817:1 routing_carIn30817:1 emissions_carIn30817:1" vType="default_016" speedFactor="0.98" vaporized="">
        <emissions CO_abs="1994.193541" CO2_abs="138764.816473" HC_abs="12.271468" PMx_abs="2.076221" NOx_abs="53.966635" fuel_abs="59.649547" electricity_abs="0"/>
    </tripinfo>
    <tripinfo id="h4538c1:1" depart="57701.00" departLane="-10427692#1_1" departPos="5.10" departSpeed="0.00" departDelay="0.00" arrival="57755.00" arrivalLane="-128361102#1_1" arrivalPos="274.68" arrivalSpeed="13.79" duration="54.00" routeLength="440.74" waitingTime="13.00" waitingCount="1" stopTime="0.00" timeLoss="23.28" rerouteNo="1" devices="tripinfo_h4538c1:1 routing_h4538c1:1 emissions_h4538c1:1" vType="default_016" speedFactor="1.02" vaporized="">
        <emissions CO_abs="3236.827271" CO2_abs="137843.463286" HC_abs="17.950002" PMx_abs="2.565590" NOx_abs="57.085437" fuel_abs="59.253773" electricity_abs="0"/>
    </tripinfo>
    <tripinfo id="h3154c1:1" depart="57658.00" departLane="24634507_1" departPos="5.10" departSpeed="0.00" departDelay="0.00" arrival="57766.00" arrivalLane="-266565295#5_1" arrivalPos="172.76" arrivalSpeed="13.77" duration="108.00" routeLength="1206.22" waitingTime="2.00" waitingCount="1" stopTime="0.00" timeLoss="22.77" rerouteNo="1" devices="tripinfo_h3154c1:1 routing_h3154c1:1 emissions_h3154c1:1" vType="default_016" speedFactor="1.05" vaporized="">
        <emissions CO_abs="4847.029105" CO2_abs="331209.672901" HC_abs="29.785530" PMx_abs="5.898952" NOx_abs="134.898983" fuel_abs="142.372654" electricity_abs="0"/>
    </tripinfo>
    <tripinfo id="carIn28951:1" depart="57606.00" departLane="10425609#0_1" departPos="5.10" departSpeed="0.00" departDelay="0.20" arrival="57776.00" arrivalLane="-128361102#1_1" arrivalPos="274.68" arrivalSpeed="13.25" duration="170.00" routeLength="2113.04" waitingTime="0.00" waitingCount="0" stopTime="0.00" timeLoss="19.61" rerouteNo="1" devices="tripinfo_carIn28951:1 routing_carIn28951:1 emissions_carIn28951:1" vType="default_016" speedFactor="1.03" vaporized="">
        <emissions CO_abs="5236.669396" CO2_abs="457595.641091" HC_abs="34.410945" PMx_abs="7.296292" NOx_abs="179.466351" fuel_abs="196.700694" electricity_abs="0"/>
    </tripinfo>
    <tripinfo id="h330c1:1" depart="57736.00" departLane="-32978638#0_1" departPos="5.10" departSpeed="0.00" departDelay="0.20" arrival="57776.00" arrivalLane="-266565295#5_1" arrivalPos="172.76" arrivalSpeed="12.22" duration="40.00" routeLength="370.53" waitingTime="3.00" waitingCount="1" stopTime="0.00" timeLoss="11.30" rerouteNo="1" devices="tripinfo_h330c1:1 routing_h330c1:1 emissions_h330c1:1" vType="default_016" speedFactor="0.96" vaporized="">
        <emissions CO_abs="1946.611276" CO2_abs="116488.266140" HC_abs="11.593763" PMx_abs="2.034062" NOx_abs="47.481356" fuel_abs="50.073491" electricity_abs="0"/>
    </tripinfo>
    <tripinfo id="carIn48184:1" depart="57613.00" departLane="-306240162#1_0" departPos="5.10" departSpeed="0.00" departDelay="0.70" arrival="57783.00" arrivalLane="386687235_1" arrivalPos="80.84" arrivalSpeed="13.21" duration="170.00" routeLength="2257.41" waitingTime="5.00" waitingCount="1" stopTime="0.00" timeLoss="27.17" rerouteNo="1" devices="tripinfo_carIn48184:1 routing_carIn48184:1 emissions_carIn48184:1" vType="default_016" speedFactor="1.04" vaporized="">
        <emissions CO_abs="6695.321803" CO2_abs="516301.103805" HC_abs="42.619916" PMx_abs="9.269062" NOx_abs="208.170057" fuel_abs="221.934848" electricity_abs="0"/>
    </tripinfo>
    <tripinfo id="h645c1:1" depart="57622.00" departLane="266565295#5_1" departPos="5.10" departSpeed="0.00" departDelay="0.40" arrival="57783.00" arrivalLane="-315358244_1" arrivalPos="33.95" arrivalSpeed="12.70" duration="161.00" routeLength="1910.83" waitingTime="0.00" waitingCount="0" stopTime="0.00" timeLoss="11.38" rerouteNo="1" devices="tripinfo_h645c1:1 routing_h645c1:1 emissions_h645c1:1" vType="default_016" speedFactor="0.93" vaporized="">
        <emissions CO_abs="3390.527770" CO2_abs="328280.071240" HC_abs="22.991805" PMx_abs="4.535587" NOx_abs="124.311297" fuel_abs="141.114255" electricity_abs="0"/>
    </tripinfo>
    <tripinfo id="carIn27009:1" depart="57673.00" departLane="-447569998#1_1" departPos="5.10" departSpeed="0.00" departDelay="0.50" arrival="57784.00" arrivalLane="-26677539_1" arrivalPos="152.75" arrivalSpeed="7.23" duration="111.00" routeLength="699.63" waitingTime="13.00" waitingCount="1" stopTime="0.00" timeLoss="26.90" rerouteNo="1" devices="tripinfo_carIn27009:1 routing_carIn27009:1 emissions_carIn27009:1" vType="default_015" speedFactor="0.99" vaporized="">
        <emissions CO_abs="5225.998490" CO2_abs="198838.352026" HC_abs="28.372947" PMx_abs="3.435875" NOx_abs="82.015795" fuel_abs="85.473948" electricity_abs="0"/>
    </tripinfo>
    <tripinfo id="carIn12365:1" depart="57713.00" departLane="315358244_1" departPos="5.10" departSpeed="0.00" departDelay="0.50" arrival="57788.00" arrivalLane="447569997#1_1" arrivalPos="180.93" arrivalSpeed="8.92" duration="75.00" routeLength="718.04" waitingTime="8.00" waitingCount="1" stopTime="0.00" timeLoss="19.16" rerouteNo="1" devices="tripinfo_carIn12365:1 routing_carIn12365:1 emissions_carIn12365:1" vType="default_016" speedFactor="1.10" vaporized="">
        <emissions CO_abs="2576.833266" CO2_abs="158651.955799" HC_abs="15.356245" PMx_abs="2.687015" NOx_abs="63.731445" fuel_abs="68.198007" electricity_abs="0"/>
    </tripinfo>
    <tripinfo id="h3326c1:2" depart="57656.00" departLane="22716069#0_1" departPos="5.10" departSpeed="0.00" departDelay="0.00" arrival="57793.00" arrivalLane="24634517#13_1" arrivalPos="111.62" arrivalSpeed="10.32" duration="137.00" routeLength="1312.81" waitingTime="0.00" waitingCount="0" stopTime="0.00" timeLoss="14.30" rerouteNo="1" devices="tripinfo_h3326c1:2 routing_h3326c1:2 emissions_h3326c1:2" vType="default_016" speedFactor="0.80" vaporized="">
        <emissions CO_abs="4567.821815" CO2_abs="292404.741577" HC_abs="27.552518" PMx_abs="4.580070" NOx_abs="116.304012" fuel_abs="125.693191" electricity_abs="0"/>
    </tripinfo>
    <tripinfo id="h11737c1:1" depart="57664.00" departLane="272042143_1" departPos="5.10" departSpeed="0.00" departDelay="0.50" arrival="57795.00" arrivalLane="-315358254#1_1" arrivalPos="137.16" arrivalSpeed="13.25" duration="131.00" routeLength="1596.88" waitingTime="0.00" waitingCount="0" stopTime="0.00" timeLoss="14.23" rerouteNo="1" devices="tripinfo_h11737c1:1 routing_h11737c1:1 emissions_h11737c1:1" vType="default_016" speedFactor="0.99" vaporized="">
        <emissions CO_abs="3798.632094" CO2_abs="311027.220534" HC_abs="24.567151" PMx_abs="5.055780" NOx_abs="123.008752" fuel_abs="133.697262" electricity_abs="0"/>
    </tripinfo>
    <tripinfo id="carIn129809:1" depart="57729.00" departLane="-447569998#1_1" departPos="5.10" departSpeed="0.00" departDelay="1.00" arrival="57795.00" arrivalLane="-315358244_1" arrivalPos="33.95" arrivalSpeed="13.68" duration="66.00" routeLength="706.49" waitingTime="0.00" waitingCount="0" stopTime="0.00" timeLoss="8.62" rerouteNo="1" devices="tripinfo_carIn129809:1 routing_carIn129809:1 emissions_carIn129809:1" vType="default_015" speedFactor="1.06" vaporized="">
        <emissions CO_abs="2666.450381" CO2_abs="168542.079015" HC_abs="16.027126" PMx_abs="2.874478" NOx_abs="67.991292" fuel_abs="72.449267" electricity_abs="0"/>
    </tripinfo>
    <tripinfo id="carIn107084:1" depart="57601.00" departLane="124812856#0_1" departPos="5.10" departSpeed="0.00" departDelay="0.70" arrival="57797.00" arrivalLane="-128361102#1_1" arrivalPos="274.68" arrivalSpeed="13.12" duration="196.00" routeLength="2250.49" waitingTime="5.00" waitingCount="1" stopTime="0.00" timeLoss="25.11" rerouteNo="1" devices="tripinfo_carIn107084:1 routing_carIn107084:1 emissions_carIn107084:1" vType="default_016" speedFactor="0.96" vaporized="">
        <emissions CO_abs="5869.436311" CO2_abs="472810.402273" HC_abs="37.747276" PMx_abs="7.516599" NOx_abs="186.160376" fuel_abs="203.241227" electricity_abs="0"/>
    </tripinfo>
    <tripinfo id="carIn86816:1" depart="57617.00" departLane="128361102#0_1" departPos="5.10" departSpeed="0.00" departDelay="0.80" arrival="57797.00" arrivalLane="201956811#0_1" arrivalPos="40.40" arrivalSpeed="12.41" duration="180.00" routeLength="2067.33" waitingTime="0.00" waitingCount="0" stopTime="0.00" timeLoss="19.88" rerouteNo="1" devices="tripinfo_carIn86816:1 routing_carIn86816:1 emissions_carIn86816:1" vType="default_016" speedFactor="0.94" vaporized="">
        <emissions CO_abs="4842.356433" CO2_abs="413286.934356" HC_abs="31.626830" PMx_abs="6.216086" NOx_abs="160.329997" fuel_abs="177.654908" electricity_abs="0"/>
    </tripinfo>
    <tripinfo id="carIn118591:1" depart="57689.00" departLane="315358244_1" departPos="5.10" departSpeed="0.00" departDelay="0.20" arrival="57797.00" arrivalLane="386687235_1" arrivalPos="80.84" arrivalSpeed="13.44" duration="108.00" routeLength="1186.14" waitingTime="11.00" waitingCount="2" stopTime="0.00" timeLoss="24.51" rerouteNo="1" devices="tripinfo_carIn118591:1 routing_carIn118591:1 emissions_carIn118591:1" vType="default_016" speedFactor="1.04" vaporized="">
        <emissions CO_abs="3743.681891" CO2_abs="242829.041245" HC_abs="22.657977" PMx_abs="4.017862" NOx_abs="96.182664" fuel_abs="104.382369" electricity_abs="0"/>
    </tripinfo>
    <tripinfo id="h5979c1:5" depart="57669.00" departLane="399835085#1_1" departPos="5.10" departSpeed="0.00" departDelay="0.00" arrival="57798.00" arrivalLane="-315358254#1_1" arrivalPos="137.16" arrivalSpeed="13.28" duration="129.00" routeLength="659.33" waitingTime="31.00" waitingCount="2" stopTime="0.00" timeLoss="58.82" rerouteNo="1" devices="tripinfo_h5979c1:5 routing_h5979c1:5 emissions_h5979c1:5" vType="default_016" speedFactor="1.04" vaporized="">
        <emissions CO_abs="8558.843637" CO2_abs="261494.272823" HC_abs="45.037720" PMx_abs="5.118368" NOx_abs="111.405758" fuel_abs="112.408187" electricity_abs="0"/>
    </tripinfo>
    <tripinfo id="carIn102915:1" depart="57643.00" departLane="128361102#0_1" departPos="5.10" departSpeed="0.00" departDelay="0.40" arrival="57799.00" arrivalLane="201956811#0_1" arrivalPos="40.40" arrivalSpeed="14.44" duration="156.00" routeLength="2067.33" waitingTime="0.00" waitingCount="0" stopTime="0.00" timeLoss="18.00" rerouteNo="1" devices="tripinfo_carIn102915:1 routing_carIn102915:1 emissions_carIn102915:1" vType="default_016" speedFactor="1.10" vaporized="">
        <emissions CO_abs="4817.026570" CO2_abs="427245.684376" HC_abs="31.578187" PMx_abs="7.037421" NOx_abs="168.185333" fuel_abs="183.654180" electricity_abs="0"/>
    </tripinfo>
    <tripinfo id="h17600c1:1" depart="57662.00" departLane="272042143_1" departPos="5.10" departSpeed="0.00" departDelay="0.30" arrival="57800.00" arrivalLane="201238729#3_1" arrivalPos="431.02" arrivalSpeed="15.96" duration="138.00" routeLength="2100.26" waitingTime="0.00" waitingCount="0" stopTime="0.00" timeLoss="8.75" rerouteNo="1" devices="tripinfo_h17600c1:1 routing_h17600c1:1 emissions_h17600c1:1" vType="default_016" speedFactor="1.18" vaporized="">
        <emissions CO_abs="3312.976727" CO2_abs="361700.106862" HC_abs="23.208729" PMx_abs="5.872024" NOx_abs="139.608265" fuel_abs="155.478704" electricity_abs="0"/>
    </tripinfo>
    <tripinfo id="carIn77943:1" depart="57608.00" departLane="124812856#0_1" departPos="5.10" departSpeed="0.00" departDelay="2.50" arrival="57801.00" arrivalLane="-128361102#1_1" arrivalPos="274.68" arrivalSpeed="12.74" duration="193.00" routeLength="2250.49" waitingTime="1.00" waitingCount="1" stopTime="0.00" timeLoss="23.84" rerouteNo="1" devices="tripinfo_carIn77943:1 routing_carIn77943:1 emissions_carIn77943:1" vType="default_016" speedFactor="0.98" vaporized="">
        <emissions CO_abs="5820.013460" CO2_abs="461471.773473" HC_abs="37.237785" PMx_abs="7.447013" NOx_abs="182.483491" fuel_abs="198.367124" electricity_abs="0"/>
    </tripinfo>
    <tripinfo id="randUni33724:1" depart="57646.00" departLane="128361102#0_1" departPos="5.10" departSpeed="0.00" departDelay="1.20" arrival="57801.00" arrivalLane="201956811#0_1" arrivalPos="40.40" arrivalSpeed="14.10" duration="155.00" routeLength="2067.33" waitingTime="0.00" waitingCount="0" stopTime="0.00" timeLoss="18.61" rerouteNo="1" devices="tripinfo_randUni33724:1 routing_randUni33724:1 emissions_randUni33724:1" vType="random_016" speedFactor="1.10" vaporized="">
        <emissions CO_abs="5218.953041" CO2_abs="442125.649185" HC_abs="34.081201" PMx_abs="7.575982" NOx_abs="176.336274" fuel_abs="190.050191" electricity_abs="0"/>
    </tripinfo>
    <tripinfo id="carIn81046:1" depart="57611.00" departLane="124812856#0_1" departPos="5.10" departSpeed="0.00" departDelay="2.50" arrival="57802.00" arrivalLane="-128361102#1_1" arrivalPos="274.68" arrivalSpeed="13.42" duration="191.00" routeLength="2250.49" waitingTime="0.00" waitingCount="0" stopTime="0.00" timeLoss="35.18" rerouteNo="1" devices="tripinfo_carIn81046:1 routing_carIn81046:1 emissions_carIn81046:1" vType="default_016" speedFactor="1.05" vaporized="">
        <emissions CO_abs="6974.948894" CO2_abs="522191.254632" HC_abs="43.983682" PMx_abs="8.905405" NOx_abs="210.032577" fuel_abs="224.467406" electricity_abs="0"/>
    </tripinfo>
    <tripinfo id="carIn82278:1" depart="57702.00" departLane="-306240162#1_0" departPos="5.10" departSpeed="0.00" departDelay="0.70" arrival="57804.00" arrivalLane="399835085#1_1" arrivalPos="212.23" arrivalSpeed="7.84" duration="102.00" routeLength="1093.26" waitingTime="9.00" waitingCount="1" stopTime="0.00" timeLoss="23.66" rerouteNo="1" devices="tripinfo_carIn82278:1 routing_carIn82278:1 emissions_carIn82278:1" vType="default_016" speedFactor="1.00" vaporized="">
        <emissions CO_abs="5132.848265" CO2_abs="294285.768064" HC_abs="30.242484" PMx_abs="5.389370" NOx_abs="119.627430" fuel_abs="126.501274" electricity_abs="0"/>
    </tripinfo>
    <tripinfo id="carIn12858:1" depart="57661.00" departLane="128361109#1_1" departPos="5.10" departSpeed="0.00" departDelay="0.90" arrival="57808.00" arrivalLane="399835085#1_1" arrivalPos="212.23" arrivalSpeed="8.02" duration="147.00" routeLength="1738.12" waitingTime="12.00" waitingCount="2" stopTime="0.00" timeLoss="42.24" rerouteNo="1" devices="tripinfo_carIn12858:1 routing_carIn12858:1 emissions_carIn12858:1" vType="default_016" speedFactor="1.10" vaporized="">
        <emissions CO_abs="8687.895266" CO2_abs="524920.940346" HC_abs="52.086276" PMx_abs="10.472717" NOx_abs="218.702567" fuel_abs="225.640119" electricity_abs="0"/>
    </tripinfo>
    <tripinfo id="carIn107282:1" depart="57749.00" departLane="-447569998#1_1" departPos="5.10" departSpeed="0.00" departDelay="0.00" arrival="57808.00" arrivalLane="315358242#0_1" arrivalPos="165.37" arrivalSpeed="12.35" duration="59.00" routeLength="448.50" waitingTime="4.00" waitingCount="1" stopTime="0.00" timeLoss="13.01" rerouteNo="1" devices="tripinfo_carIn107282:1 routing_carIn107282:1 emissions_carIn107282:1" vType="default_016" speedFactor="0.91" vaporized="">
        <emissions CO_abs="2331.761639" CO2_abs="118600.736314" HC_abs="13.367045" PMx_abs="1.996873" NOx_abs="48.195350" fuel_abs="50.981933" electricity_abs="0"/>
    </tripinfo>
    <tripinfo id="carIn77438:1" depart="57614.00" departLane="124812856#0_1" departPos="5.10" departSpeed="0.00" departDelay="1.10" arrival="57811.00" arrivalLane="-128361102#1_1" arrivalPos="274.68" arrivalSpeed="12.64" duration="197.00" routeLength="2250.49" waitingTime="0.00" waitingCount="0" stopTime="0.00" timeLoss="23.13" rerouteNo="1" devices="tripinfo_carIn77438:1 routing_carIn77438:1 emissions_carIn77438:1" vType="default_016" speedFactor="0.94" vaporized="">
        <emissions CO_abs="6018.928676" CO2_abs="468719.245959" HC_abs="38.343365" PMx_abs="7.599000" NOx_abs="186.114135" fuel_abs="201.482494" electricity_abs="0"/>
    </tripinfo>
    <tripinfo id="h19804c1:3" depart="57617.00" departLane="124812856#0_1" departPos="5.10" departSpeed="0.00" departDelay="1.50" arrival="57813.00" arrivalLane="-128361102#1_1" arrivalPos="274.68" arrivalSpeed="13.10" duration="196.00" routeLength="2250.49" waitingTime="0.00" waitingCount="0" stopTime="0.00" timeLoss="35.53" rerouteNo="1" devices="tripinfo_h19804c1:3 routing_h19804c1:3 emissions_h19804c1:3" vType="default_016" speedFactor="1.02" vaporized="">
        <emissions CO_abs="6967.253652" CO2_abs="523110.072489" HC_abs="44.006619" PMx_abs="9.050896" NOx_abs="211.687836" fuel_abs="224.862108" electricity_abs="0"/>
    </tripinfo>
    <tripinfo id="carIn116184:1" depart="57627.00" departLane="-306240162#1_0" departPos="5.10" departSpeed="0.00" departDelay="0.10" arrival="57813.00" arrivalLane="386687235_2" arrivalPos="80.84" arrivalSpeed="14.09" duration="186.00" routeLength="2257.41" waitingTime="1.00" waitingCount="1" stopTime="0.00" timeLoss="51.23" rerouteNo="1" devices="tripinfo_carIn116184:1 routing_carIn116184:1 emissions_carIn116184:1" vType="default_016" speedFactor="1.10" vaporized="">
        <emissions CO_abs="8197.179965" CO2_abs="585943.186000" HC_abs="51.226153" PMx_abs="10.811498" NOx_abs="240.462691" fuel_abs="251.870725" electricity_abs="0"/>
    </tripinfo>
    <tripinfo id="carIn50326:1" depart="57651.00" departLane="128361102#0_1" departPos="5.10" departSpeed="0.00" departDelay="0.30" arrival="57813.00" arrivalLane="18809673#0_1" arrivalPos="473.56" arrivalSpeed="12.45" duration="162.00" routeLength="1591.07" waitingTime="12.00" waitingCount="1" stopTime="0.00" timeLoss="30.68" rerouteNo="1" devices="tripinfo_carIn50326:1 routing_carIn50326:1 emissions_carIn50326:1" vType="default_016" speedFactor="0.98" vaporized="">
        <emissions CO_abs="6496.061966" CO2_abs="381184.626429" HC_abs="38.452115" PMx_abs="6.382499" NOx_abs="152.992941" fuel_abs="163.856104" electricity_abs="0"/>
    </tripinfo>
    <tripinfo id="carIn462:1" depart="57622.00" departLane="-306240162#1_0" departPos="5.10" departSpeed="0.00" departDelay="4.80" arrival="57814.00" arrivalLane="386687235_1" arrivalPos="80.84" arrivalSpeed="13.03" duration="192.00" routeLength="2257.41" waitingTime="1.00" waitingCount="1" stopTime="0.00" timeLoss="43.38" rerouteNo="1" devices="tripinfo_carIn462:1 routing_carIn462:1 emissions_carIn462:1" vType="default_016" speedFactor="1.00" vaporized="">
        <emissions CO_abs="7272.457192" CO2_abs="519890.430665" HC_abs="45.340529" PMx_abs="9.250349" NOx_abs="211.288177" fuel_abs="223.478105" electricity_abs="0"/>
    </tripinfo>
    <tripinfo id="carIn101568:1" depart="57638.00" departLane="-306240162#1_0" departPos="5.10" departSpeed="0.00" departDelay="0.50" arrival="57815.00" arrivalLane="386687235_2" arrivalPos="80.84" arrivalSpeed="13.73" duration="177.00" routeLength="2257.41" waitingTime="0.00" waitingCount="0" stopTime="0.00" timeLoss="37.77" rerouteNo="1" devices="tripinfo_carIn101568:1 routing_carIn101568:1 emissions_carIn101568:1" vType="default_016" speedFactor="1.07" vaporized="">
        <emissions CO_abs="7839.220851" CO2_abs="570908.005467" HC_abs="49.167918" PMx_abs="10.470687" NOx_abs="231.888059" fuel_abs="245.407935" electricity_abs="0"/>
    </tripinfo>
    <tripinfo id="carIn107842:1" depart="57623.00" departLane="124812856#0_1" departPos="5.10" departSpeed="0.00" departDelay="1.90" arrival="57816.00" arrivalLane="-128361102#1_1" arrivalPos="274.68" arrivalSpeed="14.98" duration="193.00" routeLength="2250.49" waitingTime="0.00" waitingCount="0" stopTime="0.00" timeLoss="42.51" rerouteNo="1" devices="tripinfo_carIn107842:1 routing_carIn107842:1 emissions_carIn107842:1" vType="default_016" speedFactor="1.10" vaporized="">
        <emissions CO_abs="6759.711000" CO2_abs="505667.450166" HC_abs="42.517700" PMx_abs="8.709131" NOx_abs="204.093973" fuel_abs="217.364375" electricity_abs="0"/>
    </tripinfo>