<?xml version="1.0" encoding="UTF-8"?>

<!-- generated on 2021-10-26 12:15:44 by Eclipse SUMO sumo Version 1.10.0
<configuration xmlns:xsi="http://www.w3.org/2001/XMLSchema-instance" xsi:noNamespaceSchemaLocation="http://sumo.dlr.de/xsd/sumoConfiguration.xsd">

    <input>
        <net-file value="/Users/behradkoohy/sumo-scratchpad/RESCO/environments/ingolstadt21/ingolstadt21.net.xml"/>
        <route-files value="/Users/behradkoohy/sumo-scratchpad/RESCO/environments/ingolstadt21/ingolstadt21.rou.xml"/>
    </input>

    <output>
        <tripinfo-output value="/Users/behradkoohy/sumo-scratchpad/RESCO/logs/MAXWAVE-tr0-ingolstadt21-21-wave-wait/tripinfo_82.xml"/>
        <tripinfo-output.write-unfinished value="true"/>
    </output>

    <time>
        <begin value="57600"/>
        <end value="61200"/>
    </time>

    <processing>
        <time-to-teleport value="-1"/>
    </processing>

    <report>
        <no-warnings value="true"/>
        <no-step-log value="true"/>
    </report>

    <emissions>
        <device.emissions.probability value="1"/>
    </emissions>

    <traci_server>
        <remote-port value="58134"/>
    </traci_server>

    <random_number>
        <random value="true"/>
    </random_number>

</configuration>
-->

<tripinfos xmlns:xsi="http://www.w3.org/2001/XMLSchema-instance" xsi:noNamespaceSchemaLocation="http://sumo.dlr.de/xsd/tripinfo_file.xsd">
    <tripinfo id="carIn60260:1" depart="57606.00" departLane="315358254#0_1" departPos="5.10" departSpeed="0.00" departDelay="0.90" arrival="57652.00" arrivalLane="399835085#1_1" arrivalPos="212.23" arrivalSpeed="9.21" duration="46.00" routeLength="430.98" waitingTime="0.00" waitingCount="0" stopTime="0.00" timeLoss="6.17" rerouteNo="1" devices="tripinfo_carIn60260:1 routing_carIn60260:1 emissions_carIn60260:1" vType="default_016" speedFactor="1.17" vaporized="">
        <emissions CO_abs="1995.280181" CO2_abs="116455.856379" HC_abs="11.794956" PMx_abs="1.963054" NOx_abs="47.315099" fuel_abs="50.059678" electricity_abs="0"/>
    </tripinfo>
    <tripinfo id="h15454c2:3" depart="57612.00" departLane="24608844_1" departPos="5.10" departSpeed="0.00" departDelay="0.50" arrival="57654.00" arrivalLane="32978638#0_1" arrivalPos="49.29" arrivalSpeed="12.86" duration="42.00" routeLength="354.79" waitingTime="0.00" waitingCount="0" stopTime="0.00" timeLoss="7.28" rerouteNo="1" devices="tripinfo_h15454c2:3 routing_h15454c2:3 emissions_h15454c2:3" vType="default_016" speedFactor="1.00" vaporized="">
        <emissions CO_abs="2220.068694" CO2_abs="121535.737329" HC_abs="12.954424" PMx_abs="2.166941" NOx_abs="50.202462" fuel_abs="52.243245" electricity_abs="0"/>
    </tripinfo>
    <tripinfo id="carIn53971:1" depart="57640.00" departLane="272042143_1" departPos="5.10" departSpeed="0.00" departDelay="0.80" arrival="57700.00" arrivalLane="24634414#1_1" arrivalPos="162.19" arrivalSpeed="7.07" duration="60.00" routeLength="493.04" waitingTime="0.00" waitingCount="0" stopTime="0.00" timeLoss="8.67" rerouteNo="1" devices="tripinfo_carIn53971:1 routing_carIn53971:1 emissions_carIn53971:1" vType="default_016" speedFactor="0.89" vaporized="">
        <emissions CO_abs="2750.799293" CO2_abs="140820.397709" HC_abs="15.783603" PMx_abs="2.345749" NOx_abs="57.213625" fuel_abs="60.533325" electricity_abs="0"/>
    </tripinfo>
    <tripinfo id="S5R_frequency1.2" depart="57615.00" departLane="315358250#0_1" departPos="12.10" departSpeed="0.00" departDelay="3.40" arrival="57707.00" arrivalLane="386687235_1" arrivalPos="80.84" arrivalSpeed="13.57" duration="92.00" routeLength="1115.62" waitingTime="0.00" waitingCount="0" stopTime="0.00" timeLoss="10.97" rerouteNo="1" devices="tripinfo_S5R_frequency1.2 routing_S5R_frequency1.2 emissions_S5R_frequency1.2" vType="bus" speedFactor="1.00" vaporized="">
        <emissions CO_abs="1847.017881" CO2_abs="1176764.519493" HC_abs="391.948105" PMx_abs="198.679844" NOx_abs="9073.431071" fuel_abs="501.887419" electricity_abs="0"/>
    </tripinfo>
    <tripinfo id="carIn80064:1" depart="57603.00" departLane="128361109#1_1" departPos="5.10" departSpeed="0.00" departDelay="0.40" arrival="57713.00" arrivalLane="-315358254#1_1" arrivalPos="137.16" arrivalSpeed="14.15" duration="110.00" routeLength="1587.97" waitingTime="0.00" waitingCount="0" stopTime="0.00" timeLoss="25.42" rerouteNo="1" devices="tripinfo_carIn80064:1 routing_carIn80064:1 emissions_carIn80064:1" vType="default_016" speedFactor="1.06" vaporized="">
        <emissions CO_abs="6821.553835" CO2_abs="461127.729879" HC_abs="42.130118" PMx_abs="9.295279" NOx_abs="192.773162" fuel_abs="198.217422" electricity_abs="0"/>
    </tripinfo>
    <tripinfo id="h12244c1:3" depart="57612.00" departLane="315358244_1" departPos="5.10" departSpeed="0.00" departDelay="0.40" arrival="57715.00" arrivalLane="386687235_1" arrivalPos="80.84" arrivalSpeed="11.58" duration="103.00" routeLength="1186.14" waitingTime="0.00" waitingCount="0" stopTime="0.00" timeLoss="8.13" rerouteNo="1" devices="tripinfo_h12244c1:3 routing_h12244c1:3 emissions_h12244c1:3" vType="default_016" speedFactor="0.91" vaporized="">
        <emissions CO_abs="2643.101803" CO2_abs="229127.318509" HC_abs="17.329691" PMx_abs="3.357470" NOx_abs="88.398089" fuel_abs="98.492420" electricity_abs="0"/>
    </tripinfo>
    <tripinfo id="h7800c1:5" depart="57696.00" departLane="-447569998#1_1" departPos="5.10" departSpeed="0.00" departDelay="0.00" arrival="57720.00" arrivalLane="-447569998#1_1" arrivalPos="180.76" arrivalSpeed="7.67" duration="24.00" routeLength="175.66" waitingTime="0.00" waitingCount="0" stopTime="0.00" timeLoss="3.50" rerouteNo="1" devices="tripinfo_h7800c1:5 routing_h7800c1:5 emissions_h7800c1:5" vType="default_016" speedFactor="1.06" vaporized="">
        <emissions CO_abs="1098.503134" CO2_abs="49792.773651" HC_abs="6.139443" PMx_abs="0.780915" NOx_abs="20.004089" fuel_abs="21.404190" electricity_abs="0"/>
    </tripinfo>
    <tripinfo id="h9563c2:5" depart="57631.00" departLane="315358244_1" departPos="5.10" departSpeed="0.00" departDelay="0.70" arrival="57726.00" arrivalLane="386687235_1" arrivalPos="80.84" arrivalSpeed="13.61" duration="95.00" routeLength="1186.14" waitingTime="0.00" waitingCount="0" stopTime="0.00" timeLoss="8.49" rerouteNo="1" devices="tripinfo_h9563c2:5 routing_h9563c2:5 emissions_h9563c2:5" vType="default_016" speedFactor="1.00" vaporized="">
        <emissions CO_abs="2302.439952" CO2_abs="212803.053066" HC_abs="15.400892" PMx_abs="3.198190" NOx_abs="82.040001" fuel_abs="91.475091" electricity_abs="0"/>
    </tripinfo>
    <tripinfo id="carIn22761:1" depart="57616.00" departLane="-306240162#1_0" departPos="5.10" departSpeed="0.00" departDelay="2.10" arrival="57730.00" arrivalLane="399835085#1_1" arrivalPos="212.23" arrivalSpeed="6.89" duration="114.00" routeLength="1093.26" waitingTime="10.00" waitingCount="1" stopTime="0.00" timeLoss="24.81" rerouteNo="1" devices="tripinfo_carIn22761:1 routing_carIn22761:1 emissions_carIn22761:1" vType="default_016" speedFactor="0.88" vaporized="">
        <emissions CO_abs="5157.474357" CO2_abs="276051.825601" HC_abs="29.802855" PMx_abs="4.807732" NOx_abs="111.338829" fuel_abs="118.663842" electricity_abs="0"/>
    </tripinfo>
    <tripinfo id="h7181c1:1" depart="57660.00" departLane="315358254#0_1" departPos="5.10" departSpeed="0.00" departDelay="0.10" arrival="57740.00" arrivalLane="306240162#0_0" arrivalPos="220.43" arrivalSpeed="16.50" duration="80.00" routeLength="932.35" waitingTime="9.00" waitingCount="2" stopTime="0.00" timeLoss="30.14" rerouteNo="1" devices="tripinfo_h7181c1:1 routing_h7181c1:1 emissions_h7181c1:1" vType="default_016" speedFactor="1.02" vaporized="">
        <emissions CO_abs="5271.476597" CO2_abs="322727.085839" HC_abs="31.641073" PMx_abs="6.425618" NOx_abs="134.240003" fuel_abs="138.725954" electricity_abs="0"/>
    </tripinfo>
    <tripinfo id="h317c2:1" depart="57707.00" departLane="-32978638#0_1" departPos="5.10" departSpeed="0.00" departDelay="0.10" arrival="57741.00" arrivalLane="-266565295#5_1" arrivalPos="172.76" arrivalSpeed="17.96" duration="34.00" routeLength="370.53" waitingTime="3.00" waitingCount="1" stopTime="0.00" timeLoss="12.50" rerouteNo="1" devices="tripinfo_h317c2:1 routing_h317c2:1 emissions_h317c2:1" vType="default_016" speedFactor="1.29" vaporized="">
        <emissions CO_abs="2461.004007" CO2_abs="153240.462242" HC_abs="14.814388" PMx_abs="3.023912" NOx_abs="64.165168" fuel_abs="65.871169" electricity_abs="0"/>
    </tripinfo>
    <tripinfo id="h3568c1:3" depart="57656.00" departLane="266565295#5_1" departPos="5.10" departSpeed="0.00" departDelay="0.80" arrival="57743.00" arrivalLane="-24634415_1" arrivalPos="62.03" arrivalSpeed="11.52" duration="87.00" routeLength="807.40" waitingTime="0.00" waitingCount="0" stopTime="0.00" timeLoss="12.01" rerouteNo="1" devices="tripinfo_h3568c1:3 routing_h3568c1:3 emissions_h3568c1:3" vType="default_016" speedFactor="0.87" vaporized="">
        <emissions CO_abs="3234.221591" CO2_abs="192115.966127" HC_abs="19.189582" PMx_abs="3.176187" NOx_abs="77.450425" fuel_abs="82.582976" electricity_abs="0"/>
    </tripinfo>
    <tripinfo id="h3688c1:1" depart="57625.00" departLane="201201950#1_1" departPos="5.10" departSpeed="0.00" departDelay="0.00" arrival="57748.00" arrivalLane="32978638#0_1" arrivalPos="49.29" arrivalSpeed="10.26" duration="123.00" routeLength="1089.75" waitingTime="6.00" waitingCount="1" stopTime="0.00" timeLoss="20.25" rerouteNo="1" devices="tripinfo_h3688c1:1 routing_h3688c1:1 emissions_h3688c1:1" vType="default_016" speedFactor="0.78" vaporized="">
        <emissions CO_abs="4280.244275" CO2_abs="261275.139153" HC_abs="25.494538" PMx_abs="3.973068" NOx_abs="103.180833" fuel_abs="112.312160" electricity_abs="0"/>
    </tripinfo>
    <tripinfo id="carIn30817:1" depart="57681.00" departLane="315358244_1" departPos="5.10" departSpeed="0.00" departDelay="0.20" arrival="57751.00" arrivalLane="447569997#1_1" arrivalPos="180.93" arrivalSpeed="8.19" duration="70.00" routeLength="718.04" waitingTime="1.00" waitingCount="1" stopTime="0.00" timeLoss="15.15" rerouteNo="1" devices="tripinfo_carIn30817:1 routing_carIn30817:1 emissions_carIn30817:1" vType="default_016" speedFactor="1.13" vaporized="">
        <emissions CO_abs="2634.669805" CO2_abs="168935.620347" HC_abs="15.879879" PMx_abs="2.782217" NOx_abs="67.043944" fuel_abs="72.618601" electricity_abs="0"/>
    </tripinfo>
    <tripinfo id="h645c1:1" depart="57622.00" departLane="266565295#5_1" departPos="5.10" departSpeed="0.00" departDelay="0.40" arrival="57760.00" arrivalLane="-315358244_1" arrivalPos="33.95" arrivalSpeed="16.21" duration="138.00" routeLength="1910.83" waitingTime="6.00" waitingCount="1" stopTime="0.00" timeLoss="22.43" rerouteNo="1" devices="tripinfo_h645c1:1 routing_h645c1:1 emissions_h645c1:1" vType="default_016" speedFactor="1.20" vaporized="">
        <emissions CO_abs="4717.729894" CO2_abs="376260.236679" HC_abs="30.076744" PMx_abs="6.586876" NOx_abs="149.617034" fuel_abs="161.737695" electricity_abs="0"/>
    </tripinfo>
    <tripinfo id="h4538c1:1" depart="57701.00" departLane="-10427692#1_1" departPos="5.10" departSpeed="0.00" departDelay="0.00" arrival="57761.00" arrivalLane="-128361102#1_1" arrivalPos="274.68" arrivalSpeed="10.80" duration="60.00" routeLength="440.74" waitingTime="13.00" waitingCount="1" stopTime="0.00" timeLoss="23.54" rerouteNo="1" devices="tripinfo_h4538c1:1 routing_h4538c1:1 emissions_h4538c1:1" vType="default_016" speedFactor="0.87" vaporized="">
        <emissions CO_abs="3132.886516" CO2_abs="125064.718215" HC_abs="17.189183" PMx_abs="2.333539" NOx_abs="52.225831" fuel_abs="53.760788" electricity_abs="0"/>
    </tripinfo>
    <tripinfo id="h330c1:1" depart="57736.00" departLane="-32978638#0_1" departPos="5.10" departSpeed="0.00" departDelay="0.20" arrival="57774.00" arrivalLane="-266565295#5_1" arrivalPos="172.76" arrivalSpeed="13.10" duration="38.00" routeLength="370.53" waitingTime="2.00" waitingCount="1" stopTime="0.00" timeLoss="11.49" rerouteNo="1" devices="tripinfo_h330c1:1 routing_h330c1:1 emissions_h330c1:1" vType="default_016" speedFactor="1.04" vaporized="">
        <emissions CO_abs="2058.657123" CO2_abs="112204.231055" HC_abs="12.037640" PMx_abs="2.193083" NOx_abs="47.399098" fuel_abs="48.231745" electricity_abs="0"/>
    </tripinfo>
    <tripinfo id="h3326c1:2" depart="57656.00" departLane="22716069#0_1" departPos="5.10" departSpeed="0.00" departDelay="0.00" arrival="57775.00" arrivalLane="24634517#13_1" arrivalPos="111.62" arrivalSpeed="13.13" duration="119.00" routeLength="1312.81" waitingTime="3.00" waitingCount="1" stopTime="0.00" timeLoss="19.88" rerouteNo="1" devices="tripinfo_h3326c1:2 routing_h3326c1:2 emissions_h3326c1:2" vType="default_016" speedFactor="0.98" vaporized="">
        <emissions CO_abs="4425.557354" CO2_abs="311739.638816" HC_abs="27.462584" PMx_abs="5.371635" NOx_abs="126.059863" fuel_abs="134.003480" electricity_abs="0"/>
    </tripinfo>
    <tripinfo id="carIn12365:1" depart="57713.00" departLane="315358244_1" departPos="5.10" departSpeed="0.00" departDelay="0.50" arrival="57777.00" arrivalLane="447569997#1_1" arrivalPos="180.93" arrivalSpeed="8.83" duration="64.00" routeLength="718.04" waitingTime="0.00" waitingCount="0" stopTime="0.00" timeLoss="6.90" rerouteNo="1" devices="tripinfo_carIn12365:1 routing_carIn12365:1 emissions_carIn12365:1" vType="default_016" speedFactor="1.09" vaporized="">
        <emissions CO_abs="2024.672936" CO2_abs="146330.418988" HC_abs="12.609515" PMx_abs="2.317947" NOx_abs="57.592401" fuel_abs="62.901453" electricity_abs="0"/>
    </tripinfo>
    <tripinfo id="carIn86816:1" depart="57617.00" departLane="128361102#0_1" departPos="5.10" departSpeed="0.00" departDelay="0.80" arrival="57778.00" arrivalLane="201956811#0_1" arrivalPos="40.40" arrivalSpeed="14.64" duration="161.00" routeLength="2067.33" waitingTime="0.00" waitingCount="0" stopTime="0.00" timeLoss="17.50" rerouteNo="1" devices="tripinfo_carIn86816:1 routing_carIn86816:1 emissions_carIn86816:1" vType="default_016" speedFactor="1.06" vaporized="">
        <emissions CO_abs="5051.238290" CO2_abs="442780.135558" HC_abs="33.289398" PMx_abs="7.241182" NOx_abs="174.558783" fuel_abs="190.331887" electricity_abs="0"/>
    </tripinfo>
    <tripinfo id="carIn27009:1" depart="57673.00" departLane="-447569998#1_1" departPos="5.10" departSpeed="0.00" departDelay="0.50" arrival="57780.00" arrivalLane="-26677539_1" arrivalPos="152.75" arrivalSpeed="8.76" duration="107.00" routeLength="699.63" waitingTime="13.00" waitingCount="1" stopTime="0.00" timeLoss="28.16" rerouteNo="1" devices="tripinfo_carIn27009:1 routing_carIn27009:1 emissions_carIn27009:1" vType="default_015" speedFactor="1.06" vaporized="">
        <emissions CO_abs="5327.141837" CO2_abs="210745.000218" HC_abs="29.115760" PMx_abs="3.638182" NOx_abs="86.745760" fuel_abs="90.592058" electricity_abs="0"/>
    </tripinfo>
    <tripinfo id="carIn28951:1" depart="57606.00" departLane="10425609#0_1" departPos="5.10" departSpeed="0.00" departDelay="0.20" arrival="57786.00" arrivalLane="-128361102#1_1" arrivalPos="274.68" arrivalSpeed="12.63" duration="180.00" routeLength="2113.04" waitingTime="0.00" waitingCount="0" stopTime="0.00" timeLoss="16.95" rerouteNo="1" devices="tripinfo_carIn28951:1 routing_carIn28951:1 emissions_carIn28951:1" vType="default_016" speedFactor="0.95" vaporized="">
        <emissions CO_abs="5095.758049" CO2_abs="419784.543571" HC_abs="32.985298" PMx_abs="6.631923" NOx_abs="165.198005" fuel_abs="180.447596" electricity_abs="0"/>
    </tripinfo>
    <tripinfo id="h3154c1:1" depart="57658.00" departLane="24634507_1" departPos="5.10" departSpeed="0.00" departDelay="0.00" arrival="57788.00" arrivalLane="-266565295#5_1" arrivalPos="172.76" arrivalSpeed="13.11" duration="130.00" routeLength="1206.22" waitingTime="16.00" waitingCount="2" stopTime="0.00" timeLoss="37.23" rerouteNo="1" devices="tripinfo_h3154c1:1 routing_h3154c1:1 emissions_h3154c1:1" vType="default_016" speedFactor="0.96" vaporized="">
        <emissions CO_abs="5669.358795" CO2_abs="329481.586589" HC_abs="33.527727" PMx_abs="5.699319" NOx_abs="133.526413" fuel_abs="141.630783" electricity_abs="0"/>
    </tripinfo>
    <tripinfo id="carIn82278:1" depart="57702.00" departLane="-306240162#1_0" departPos="5.10" departSpeed="0.00" departDelay="0.70" arrival="57794.00" arrivalLane="399835085#1_1" arrivalPos="212.23" arrivalSpeed="9.76" duration="92.00" routeLength="1093.26" waitingTime="6.00" waitingCount="1" stopTime="0.00" timeLoss="27.30" rerouteNo="1" devices="tripinfo_carIn82278:1 routing_carIn82278:1 emissions_carIn82278:1" vType="default_016" speedFactor="1.21" vaporized="">
        <emissions CO_abs="6002.327038" CO2_abs="365875.632844" HC_abs="36.155416" PMx_abs="7.485806" NOx_abs="153.934968" fuel_abs="157.273280" electricity_abs="0"/>
    </tripinfo>
    <tripinfo id="carIn102915:1" depart="57643.00" departLane="128361102#0_1" departPos="5.10" departSpeed="0.00" departDelay="0.40" arrival="57797.00" arrivalLane="201956811#0_1" arrivalPos="40.40" arrivalSpeed="13.91" duration="154.00" routeLength="2067.33" waitingTime="0.00" waitingCount="0" stopTime="0.00" timeLoss="21.28" rerouteNo="1" devices="tripinfo_carIn102915:1 routing_carIn102915:1 emissions_carIn102915:1" vType="default_016" speedFactor="1.14" vaporized="">
        <emissions CO_abs="5399.722315" CO2_abs="448407.702239" HC_abs="34.905055" PMx_abs="7.653286" NOx_abs="178.322125" fuel_abs="192.750711" electricity_abs="0"/>
    </tripinfo>
    <tripinfo id="h11737c1:1" depart="57665.00" departLane="272042143_1" departPos="5.10" departSpeed="0.00" departDelay="1.50" arrival="57797.00" arrivalLane="-315358254#1_1" arrivalPos="137.16" arrivalSpeed="14.06" duration="132.00" routeLength="1596.88" waitingTime="5.00" waitingCount="1" stopTime="0.00" timeLoss="19.89" rerouteNo="1" devices="tripinfo_h11737c1:1 routing_h11737c1:1 emissions_h11737c1:1" vType="default_016" speedFactor="1.04" vaporized="">
        <emissions CO_abs="4052.896236" CO2_abs="327536.880355" HC_abs="26.080828" PMx_abs="5.475685" NOx_abs="130.260330" fuel_abs="140.793885" electricity_abs="0"/>
    </tripinfo>
    <tripinfo id="carIn107282:1" depart="57749.00" departLane="-447569998#1_1" departPos="5.10" departSpeed="0.00" departDelay="0.00" arrival="57797.00" arrivalLane="315358242#0_1" arrivalPos="165.37" arrivalSpeed="12.54" duration="48.00" routeLength="448.50" waitingTime="0.00" waitingCount="0" stopTime="0.00" timeLoss="5.18" rerouteNo="1" devices="tripinfo_carIn107282:1 routing_carIn107282:1 emissions_carIn107282:1" vType="default_016" speedFactor="0.98" vaporized="">
        <emissions CO_abs="1820.291954" CO2_abs="105272.359215" HC_abs="10.731606" PMx_abs="1.762390" NOx_abs="42.571932" fuel_abs="45.252388" electricity_abs="0"/>
    </tripinfo>
    <tripinfo id="carIn50326:1" depart="57651.00" departLane="128361102#0_1" departPos="5.10" departSpeed="0.00" departDelay="0.30" arrival="57801.00" arrivalLane="18809673#0_1" arrivalPos="473.56" arrivalSpeed="13.70" duration="150.00" routeLength="1591.07" waitingTime="5.00" waitingCount="1" stopTime="0.00" timeLoss="24.10" rerouteNo="1" devices="tripinfo_carIn50326:1 routing_carIn50326:1 emissions_carIn50326:1" vType="default_016" speedFactor="1.03" vaporized="">
        <emissions CO_abs="4859.561174" CO2_abs="346488.071394" HC_abs="30.175511" PMx_abs="5.530060" NOx_abs="136.918250" fuel_abs="148.940997" electricity_abs="0"/>
    </tripinfo>
    <tripinfo id="h5979c1:5" depart="57669.00" departLane="399835085#1_1" departPos="5.10" departSpeed="0.00" departDelay="0.00" arrival="57801.00" arrivalLane="-315358254#1_1" arrivalPos="137.16" arrivalSpeed="12.03" duration="132.00" routeLength="659.33" waitingTime="34.00" waitingCount="1" stopTime="0.00" timeLoss="53.51" rerouteNo="1" devices="tripinfo_h5979c1:5 routing_h5979c1:5 emissions_h5979c1:5" vType="default_016" speedFactor="0.94" vaporized="">
        <emissions CO_abs="9764.346508" CO2_abs="282176.791976" HC_abs="51.016728" PMx_abs="5.532431" NOx_abs="120.267905" fuel_abs="121.299397" electricity_abs="0"/>
    </tripinfo>
    <tripinfo id="carIn118591:1" depart="57689.00" departLane="315358244_1" departPos="5.10" departSpeed="0.00" departDelay="0.20" arrival="57805.00" arrivalLane="386687235_1" arrivalPos="80.84" arrivalSpeed="10.70" duration="116.00" routeLength="1186.14" waitingTime="0.00" waitingCount="0" stopTime="0.00" timeLoss="10.32" rerouteNo="1" devices="tripinfo_carIn118591:1 routing_carIn118591:1 emissions_carIn118591:1" vType="default_016" speedFactor="0.82" vaporized="">
        <emissions CO_abs="2969.956671" CO2_abs="219337.406509" HC_abs="18.554928" PMx_abs="3.152212" NOx_abs="84.983461" fuel_abs="94.284531" electricity_abs="0"/>
    </tripinfo>
    <tripinfo id="carIn107084:1" depart="57601.00" departLane="124812856#0_1" departPos="5.10" departSpeed="0.00" departDelay="0.70" arrival="57806.00" arrivalLane="-128361102#1_1" arrivalPos="274.68" arrivalSpeed="11.87" duration="205.00" routeLength="2250.49" waitingTime="3.00" waitingCount="1" stopTime="0.00" timeLoss="25.20" rerouteNo="1" devices="tripinfo_carIn107084:1 routing_carIn107084:1 emissions_carIn107084:1" vType="default_016" speedFactor="0.91" vaporized="">
        <emissions CO_abs="5682.086229" CO2_abs="450671.205153" HC_abs="36.329470" PMx_abs="6.947030" NOx_abs="176.668483" fuel_abs="193.724864" electricity_abs="0"/>
    </tripinfo>
    <tripinfo id="carIn77943:1" depart="57608.00" departLane="124812856#0_1" departPos="5.10" departSpeed="0.00" departDelay="2.50" arrival="57808.00" arrivalLane="-128361102#1_1" arrivalPos="274.68" arrivalSpeed="13.36" duration="200.00" routeLength="2250.49" waitingTime="0.00" waitingCount="0" stopTime="0.00" timeLoss="32.27" rerouteNo="1" devices="tripinfo_carIn77943:1 routing_carIn77943:1 emissions_carIn77943:1" vType="default_016" speedFactor="0.98" vaporized="">
        <emissions CO_abs="7569.858256" CO2_abs="542269.917138" HC_abs="47.220340" PMx_abs="9.394588" NOx_abs="219.775662" fuel_abs="233.098344" electricity_abs="0"/>
    </tripinfo>
    <tripinfo id="h19804c1:3" depart="57617.00" departLane="124812856#0_1" departPos="5.10" departSpeed="0.00" departDelay="1.50" arrival="57810.00" arrivalLane="-128361102#1_1" arrivalPos="274.68" arrivalSpeed="15.28" duration="193.00" routeLength="2232.46" waitingTime="0.00" waitingCount="0" stopTime="0.00" timeLoss="53.19" rerouteNo="1" devices="tripinfo_h19804c1:3 routing_h19804c1:3 emissions_h19804c1:3" vType="default_016" speedFactor="1.17" vaporized="">
        <emissions CO_abs="8724.914401" CO2_abs="608805.186195" HC_abs="54.104665" PMx_abs="11.260945" NOx_abs="251.610159" fuel_abs="261.698037" electricity_abs="0"/>
    </tripinfo>
    <tripinfo id="carIn129809:1" depart="57729.00" departLane="-447569998#1_1" departPos="5.10" departSpeed="0.00" departDelay="1.00" arrival="57813.00" arrivalLane="-315358244_1" arrivalPos="33.95" arrivalSpeed="11.30" duration="84.00" routeLength="706.49" waitingTime="6.00" waitingCount="1" stopTime="0.00" timeLoss="15.76" rerouteNo="1" devices="tripinfo_carIn129809:1 routing_carIn129809:1 emissions_carIn129809:1" vType="default_015" speedFactor="0.89" vaporized="">
        <emissions CO_abs="3266.207377" CO2_abs="173630.854167" HC_abs="18.877024" PMx_abs="2.775663" NOx_abs="69.385820" fuel_abs="74.637404" electricity_abs="0"/>
    </tripinfo>
    <tripinfo id="carIn46110:1" depart="57684.00" departLane="315358244_1" departPos="5.10" departSpeed="0.00" departDelay="1.20" arrival="57819.00" arrivalLane="32978638#0_1" arrivalPos="49.29" arrivalSpeed="13.87" duration="135.00" routeLength="1764.04" waitingTime="2.00" waitingCount="1" stopTime="0.00" timeLoss="16.74" rerouteNo="1" devices="tripinfo_carIn46110:1 routing_carIn46110:1 emissions_carIn46110:1" vType="default_016" speedFactor="1.09" vaporized="">
        <emissions CO_abs="3849.501823" CO2_abs="344442.374810" HC_abs="25.433363" PMx_abs="5.611050" NOx_abs="135.027105" fuel_abs="148.060779" electricity_abs="0"/>
    </tripinfo>
    <tripinfo id="carIn81046:1" depart="57611.00" departLane="124812856#0_1" departPos="5.10" departSpeed="0.00" departDelay="2.50" arrival="57822.00" arrivalLane="-128361102#1_1" arrivalPos="274.68" arrivalSpeed="12.06" duration="211.00" routeLength="2250.49" waitingTime="0.00" waitingCount="0" stopTime="0.00" timeLoss="23.69" rerouteNo="1" devices="tripinfo_carIn81046:1 routing_carIn81046:1 emissions_carIn81046:1" vType="default_016" speedFactor="0.88" vaporized="">
        <emissions CO_abs="6034.570130" CO2_abs="464854.727402" HC_abs="38.219803" PMx_abs="6.997641" NOx_abs="181.543076" fuel_abs="199.822135" electricity_abs="0"/>
    </tripinfo>
    <tripinfo id="carIn462:1" depart="57622.00" departLane="-306240162#1_0" departPos="5.10" departSpeed="0.00" departDelay="4.80" arrival="57822.00" arrivalLane="386687235_2" arrivalPos="80.84" arrivalSpeed="16.35" duration="200.00" routeLength="2257.41" waitingTime="0.00" waitingCount="0" stopTime="0.00" timeLoss="78.13" rerouteNo="1" devices="tripinfo_carIn462:1 routing_carIn462:1 emissions_carIn462:1" vType="default_016" speedFactor="1.22" vaporized="">
        <emissions CO_abs="9566.148317" CO2_abs="611130.535047" HC_abs="58.021636" PMx_abs="11.632772" NOx_abs="253.755710" fuel_abs="262.697883" electricity_abs="0"/>
    </tripinfo>
    <tripinfo id="carIn77438:1" depart="57613.00" departLane="124812856#0_1" departPos="5.10" departSpeed="0.00" departDelay="0.10" arrival="57823.00" arrivalLane="-128361102#1_1" arrivalPos="274.68" arrivalSpeed="12.42" duration="210.00" routeLength="2250.49" waitingTime="0.00" waitingCount="0" stopTime="0.00" timeLoss="60.21" rerouteNo="1" devices="tripinfo_carIn77438:1 routing_carIn77438:1 emissions_carIn77438:1" vType="default_016" speedFactor="1.10" vaporized="">
        <emissions CO_abs="7589.506075" CO2_abs="538159.055244" HC_abs="47.155522" PMx_abs="9.077561" NOx_abs="217.040159" fuel_abs="231.331650" electricity_abs="0"/>
    </tripinfo>
    <tripinfo id="carIn82220:1" depart="57619.00" departLane="-306240162#1_0" departPos="5.10" departSpeed="0.00" departDelay="3.50" arrival="57823.00" arrivalLane="386687235_1" arrivalPos="80.84" arrivalSpeed="12.07" duration="204.00" routeLength="2257.41" waitingTime="1.00" waitingCount="1" stopTime="0.00" timeLoss="38.03" rerouteNo="1" devices="tripinfo_carIn82220:1 routing_carIn82220:1 emissions_carIn82220:1" vType="default_016" speedFactor="0.90" vaporized="">
        <emissions CO_abs="7472.868836" CO2_abs="517924.730669" HC_abs="46.177670" PMx_abs="8.866984" NOx_abs="208.379200" fuel_abs="222.633858" electricity_abs="0"/>
    </tripinfo>
    <tripinfo id="carIn116184:1" depart="57627.00" departLane="-306240162#1_0" departPos="5.10" departSpeed="0.00" departDelay="0.10" arrival="57825.00" arrivalLane="386687235_2" arrivalPos="80.84" arrivalSpeed="12.93" duration="198.00" routeLength="2257.41" waitingTime="3.00" waitingCount="1" stopTime="0.00" timeLoss="51.22" rerouteNo="1" devices="tripinfo_carIn116184:1 routing_carIn116184:1 emissions_carIn116184:1" vType="default_016" speedFactor="1.01" vaporized="">
        <emissions CO_abs="8737.521074" CO2_abs="570350.476340" HC_abs="53.334281" PMx_abs="10.735279" NOx_abs="236.177683" fuel_abs="245.168368" electricity_abs="0"/>
    </tripinfo>
    <tripinfo id="carIn48184:1" depart="57613.00" departLane="-306240162#1_0" departPos="5.10" departSpeed="0.00" departDelay="0.70" arrival="57826.00" arrivalLane="386687235_1" arrivalPos="80.84" arrivalSpeed="10.83" duration="213.00" routeLength="2257.41" waitingTime="1.00" waitingCount="1" stopTime="0.00" timeLoss="29.48" rerouteNo="1" devices="tripinfo_carIn48184:1 routing_carIn48184:1 emissions_carIn48184:1" vType="default_016" speedFactor="0.81" vaporized="">
        <emissions CO_abs="6732.022351" CO2_abs="476353.584242" HC_abs="41.619845" PMx_abs="7.520681" NOx_abs="187.948699" fuel_abs="204.764978" electricity_abs="0"/>
    </tripinfo>
    <tripinfo id="h16072c2:3" depart="57663.00" departLane="315358254#0_1" departPos="5.10" departSpeed="0.00" departDelay="2.50" arrival="57828.00" arrivalLane="386687235_1" arrivalPos="80.84" arrivalSpeed="13.69" duration="165.00" routeLength="1611.92" waitingTime="3.00" waitingCount="2" stopTime="0.00" timeLoss="50.70" rerouteNo="1" devices="tripinfo_h16072c2:3 routing_h16072c2:3 emissions_h16072c2:3" vType="default_016" speedFactor="1.03" vaporized="">
        <emissions CO_abs="7386.553635" CO2_abs="448664.797766" HC_abs="44.197743" PMx_abs="8.091836" NOx_abs="184.825934" fuel_abs="192.861936" electricity_abs="0"/>
    </tripinfo>
    <tripinfo id="randUni14624:1" depart="57606.00" departLane="315358244_1" departPos="5.10" departSpeed="0.00" departDelay="0.80" arrival="57829.00" arrivalLane="-25149001#4_1" arrivalPos="105.67" arrivalSpeed="7.79" duration="223.00" routeLength="2803.98" waitingTime="3.00" waitingCount="1" stopTime="0.00" timeLoss="25.85" rerouteNo="1" devices="tripinfo_randUni14624:1 routing_randUni14624:1 emissions_randUni14624:1" vType="random_016" speedFactor="1.07" vaporized="">
        <emissions CO_abs="5822.269677" CO2_abs="530664.532320" HC_abs="38.702037" PMx_abs="8.421984" NOx_abs="206.815065" fuel_abs="228.109810" electricity_abs="0"/>
    </tripinfo>
    <tripinfo id="carIn81860:1" depart="57712.00" departLane="128361102#0_1" departPos="5.10" departSpeed="0.00" departDelay="0.60" arrival="57831.00" arrivalLane="-24634517#17_1" arrivalPos="6.43" arrivalSpeed="7.93" duration="119.00" routeLength="1229.64" waitingTime="4.00" waitingCount="1" stopTime="0.00" timeLoss="24.17" rerouteNo="1" devices="tripinfo_carIn81860:1 routing_carIn81860:1 emissions_carIn81860:1" vType="default_016" speedFactor="0.95" vaporized="">
        <emissions CO_abs="4102.219636" CO2_abs="271119.550240" HC_abs="25.022994" PMx_abs="4.591476" NOx_abs="109.201389" fuel_abs="116.542981" electricity_abs="0"/>
    </tripinfo>