<?xml version="1.0" encoding="UTF-8"?>

<!-- generated on 2021-10-26 11:45:16 by Eclipse SUMO sumo Version 1.10.0
<configuration xmlns:xsi="http://www.w3.org/2001/XMLSchema-instance" xsi:noNamespaceSchemaLocation="http://sumo.dlr.de/xsd/sumoConfiguration.xsd">

    <input>
        <net-file value="/Users/behradkoohy/sumo-scratchpad/RESCO/environments/ingolstadt21/ingolstadt21.net.xml"/>
        <route-files value="/Users/behradkoohy/sumo-scratchpad/RESCO/environments/ingolstadt21/ingolstadt21.rou.xml"/>
    </input>

    <output>
        <tripinfo-output value="/Users/behradkoohy/sumo-scratchpad/RESCO/logs/MAXWAVE-tr0-ingolstadt21-21-wave-wait/tripinfo_33.xml"/>
        <tripinfo-output.write-unfinished value="true"/>
    </output>

    <time>
        <begin value="57600"/>
        <end value="61200"/>
    </time>

    <processing>
        <time-to-teleport value="-1"/>
    </processing>

    <report>
        <no-warnings value="true"/>
        <no-step-log value="true"/>
    </report>

    <emissions>
        <device.emissions.probability value="1"/>
    </emissions>

    <traci_server>
        <remote-port value="57513"/>
    </traci_server>

    <random_number>
        <random value="true"/>
    </random_number>

</configuration>
-->

<tripinfos xmlns:xsi="http://www.w3.org/2001/XMLSchema-instance" xsi:noNamespaceSchemaLocation="http://sumo.dlr.de/xsd/tripinfo_file.xsd">
    <tripinfo id="h15454c2:3" depart="57612.00" departLane="24608844_1" departPos="5.10" departSpeed="0.00" departDelay="0.50" arrival="57652.00" arrivalLane="32978638#0_1" arrivalPos="49.29" arrivalSpeed="13.70" duration="40.00" routeLength="354.79" waitingTime="0.00" waitingCount="0" stopTime="0.00" timeLoss="5.78" rerouteNo="1" devices="tripinfo_h15454c2:3 routing_h15454c2:3 emissions_h15454c2:3" vType="default_016" speedFactor="0.99" vaporized="">
        <emissions CO_abs="2076.681397" CO2_abs="115439.203527" HC_abs="12.162203" PMx_abs="2.075193" NOx_abs="47.761605" fuel_abs="49.622544" electricity_abs="0"/>
    </tripinfo>
    <tripinfo id="carIn60260:1" depart="57606.00" departLane="315358254#0_1" departPos="5.10" departSpeed="0.00" departDelay="0.90" arrival="57653.00" arrivalLane="399835085#1_1" arrivalPos="212.23" arrivalSpeed="9.22" duration="47.00" routeLength="430.98" waitingTime="0.00" waitingCount="0" stopTime="0.00" timeLoss="5.61" rerouteNo="1" devices="tripinfo_carIn60260:1 routing_carIn60260:1 emissions_carIn60260:1" vType="default_016" speedFactor="1.11" vaporized="">
        <emissions CO_abs="1945.357195" CO2_abs="111948.724934" HC_abs="11.462906" PMx_abs="1.893112" NOx_abs="45.535591" fuel_abs="48.122257" electricity_abs="0"/>
    </tripinfo>
    <tripinfo id="carIn53971:1" depart="57640.00" departLane="272042143_1" departPos="5.10" departSpeed="0.00" departDelay="0.80" arrival="57696.00" arrivalLane="24634414#1_1" arrivalPos="162.19" arrivalSpeed="7.74" duration="56.00" routeLength="493.04" waitingTime="0.00" waitingCount="0" stopTime="0.00" timeLoss="9.19" rerouteNo="1" devices="tripinfo_carIn53971:1 routing_carIn53971:1 emissions_carIn53971:1" vType="default_016" speedFactor="0.98" vaporized="">
        <emissions CO_abs="2387.039183" CO2_abs="132685.064962" HC_abs="13.964341" PMx_abs="2.297549" NOx_abs="54.325926" fuel_abs="57.035962" electricity_abs="0"/>
    </tripinfo>
    <tripinfo id="h12244c1:3" depart="57612.00" departLane="315358244_1" departPos="5.10" departSpeed="0.00" departDelay="0.40" arrival="57702.00" arrivalLane="386687235_1" arrivalPos="80.84" arrivalSpeed="13.28" duration="90.00" routeLength="1186.14" waitingTime="0.00" waitingCount="0" stopTime="0.00" timeLoss="6.65" rerouteNo="1" devices="tripinfo_h12244c1:3 routing_h12244c1:3 emissions_h12244c1:3" vType="default_016" speedFactor="1.05" vaporized="">
        <emissions CO_abs="2368.914417" CO2_abs="238167.469348" HC_abs="16.123746" PMx_abs="3.602463" NOx_abs="91.419155" fuel_abs="102.377997" electricity_abs="0"/>
    </tripinfo>
    <tripinfo id="S5R_frequency1.2" depart="57615.00" departLane="315358250#0_1" departPos="12.10" departSpeed="0.00" departDelay="3.40" arrival="57708.00" arrivalLane="386687235_1" arrivalPos="80.84" arrivalSpeed="13.86" duration="93.00" routeLength="1115.62" waitingTime="0.00" waitingCount="0" stopTime="0.00" timeLoss="11.55" rerouteNo="1" devices="tripinfo_S5R_frequency1.2 routing_S5R_frequency1.2 emissions_S5R_frequency1.2" vType="bus" speedFactor="1.00" vaporized="">
        <emissions CO_abs="1868.448953" CO2_abs="1193398.489420" HC_abs="394.146454" PMx_abs="200.912894" NOx_abs="9196.447832" fuel_abs="508.980447" electricity_abs="0"/>
    </tripinfo>
    <tripinfo id="h3688c1:1" depart="57625.00" departLane="201201950#1_1" departPos="5.10" departSpeed="0.00" departDelay="0.00" arrival="57718.00" arrivalLane="32978638#0_1" arrivalPos="49.29" arrivalSpeed="15.56" duration="93.00" routeLength="1089.75" waitingTime="8.00" waitingCount="1" stopTime="0.00" timeLoss="22.33" rerouteNo="1" devices="tripinfo_h3688c1:1 routing_h3688c1:1 emissions_h3688c1:1" vType="default_016" speedFactor="1.13" vaporized="">
        <emissions CO_abs="3971.305652" CO2_abs="290538.135526" HC_abs="24.502113" PMx_abs="5.014966" NOx_abs="116.126813" fuel_abs="124.889788" electricity_abs="0"/>
    </tripinfo>
    <tripinfo id="h9563c2:5" depart="57631.00" departLane="315358244_1" departPos="5.10" departSpeed="0.00" departDelay="0.70" arrival="57723.00" arrivalLane="386687235_1" arrivalPos="80.84" arrivalSpeed="14.10" duration="92.00" routeLength="1186.14" waitingTime="0.00" waitingCount="0" stopTime="0.00" timeLoss="8.32" rerouteNo="1" devices="tripinfo_h9563c2:5 routing_h9563c2:5 emissions_h9563c2:5" vType="default_016" speedFactor="1.03" vaporized="">
        <emissions CO_abs="2320.696166" CO2_abs="201041.812048" HC_abs="15.180360" PMx_abs="3.178820" NOx_abs="78.479000" fuel_abs="86.419306" electricity_abs="0"/>
    </tripinfo>
    <tripinfo id="h7800c1:5" depart="57696.00" departLane="-447569998#1_1" departPos="5.10" departSpeed="0.00" departDelay="0.00" arrival="57723.00" arrivalLane="-447569998#1_1" arrivalPos="180.76" arrivalSpeed="7.48" duration="27.00" routeLength="175.66" waitingTime="0.00" waitingCount="0" stopTime="0.00" timeLoss="3.96" rerouteNo="1" devices="tripinfo_h7800c1:5 routing_h7800c1:5 emissions_h7800c1:5" vType="default_016" speedFactor="0.93" vaporized="">
        <emissions CO_abs="1261.360529" CO2_abs="50016.659457" HC_abs="6.889011" PMx_abs="0.830893" NOx_abs="20.477129" fuel_abs="21.500486" electricity_abs="0"/>
    </tripinfo>
    <tripinfo id="carIn80064:1" depart="57603.00" departLane="128361109#1_1" departPos="5.10" departSpeed="0.00" departDelay="0.40" arrival="57739.00" arrivalLane="-315358254#1_1" arrivalPos="137.16" arrivalSpeed="11.21" duration="136.00" routeLength="1587.97" waitingTime="6.00" waitingCount="1" stopTime="0.00" timeLoss="30.30" rerouteNo="1" devices="tripinfo_carIn80064:1 routing_carIn80064:1 emissions_carIn80064:1" vType="default_016" speedFactor="0.85" vaporized="">
        <emissions CO_abs="6521.576021" CO2_abs="431687.803337" HC_abs="39.884216" PMx_abs="8.087243" NOx_abs="177.426687" fuel_abs="185.563514" electricity_abs="0"/>
    </tripinfo>
    <tripinfo id="carIn22761:1" depart="57616.00" departLane="-306240162#1_0" departPos="5.10" departSpeed="0.00" departDelay="2.10" arrival="57740.00" arrivalLane="399835085#1_1" arrivalPos="212.23" arrivalSpeed="8.68" duration="124.00" routeLength="1093.26" waitingTime="37.00" waitingCount="1" stopTime="0.00" timeLoss="53.42" rerouteNo="1" devices="tripinfo_carIn22761:1 routing_carIn22761:1 emissions_carIn22761:1" vType="default_016" speedFactor="1.12" vaporized="">
        <emissions CO_abs="9548.323354" CO2_abs="371946.087531" HC_abs="52.353222" PMx_abs="7.656016" NOx_abs="156.701953" fuel_abs="159.885579" electricity_abs="0"/>
    </tripinfo>
    <tripinfo id="h317c2:1" depart="57707.00" departLane="-32978638#0_1" departPos="5.10" departSpeed="0.00" departDelay="0.10" arrival="57745.00" arrivalLane="-266565295#5_1" arrivalPos="172.76" arrivalSpeed="12.67" duration="38.00" routeLength="370.53" waitingTime="2.00" waitingCount="1" stopTime="0.00" timeLoss="10.25" rerouteNo="1" devices="tripinfo_h317c2:1 routing_h317c2:1 emissions_h317c2:1" vType="default_016" speedFactor="0.99" vaporized="">
        <emissions CO_abs="1971.326903" CO2_abs="111778.557919" HC_abs="11.616508" PMx_abs="2.086032" NOx_abs="46.571558" fuel_abs="48.048851" electricity_abs="0"/>
    </tripinfo>
    <tripinfo id="h3568c1:3" depart="57656.00" departLane="266565295#5_1" departPos="5.10" departSpeed="0.00" departDelay="0.80" arrival="57750.00" arrivalLane="-24634415_1" arrivalPos="62.03" arrivalSpeed="11.55" duration="94.00" routeLength="807.40" waitingTime="2.00" waitingCount="1" stopTime="0.00" timeLoss="20.15" rerouteNo="1" devices="tripinfo_h3568c1:3 routing_h3568c1:3 emissions_h3568c1:3" vType="default_016" speedFactor="0.87" vaporized="">
        <emissions CO_abs="3946.557009" CO2_abs="221436.539359" HC_abs="23.117471" PMx_abs="3.722146" NOx_abs="89.793441" fuel_abs="95.186799" electricity_abs="0"/>
    </tripinfo>
    <tripinfo id="h7181c1:1" depart="57660.00" departLane="315358254#0_1" departPos="5.10" departSpeed="0.00" departDelay="0.10" arrival="57751.00" arrivalLane="306240162#0_0" arrivalPos="220.43" arrivalSpeed="16.45" duration="91.00" routeLength="932.35" waitingTime="27.00" waitingCount="1" stopTime="0.00" timeLoss="38.91" rerouteNo="1" devices="tripinfo_h7181c1:1 routing_h7181c1:1 emissions_h7181c1:1" vType="default_016" speedFactor="0.99" vaporized="">
        <emissions CO_abs="7199.718134" CO2_abs="302005.031520" HC_abs="39.904240" PMx_abs="6.117623" NOx_abs="125.981816" fuel_abs="129.820284" electricity_abs="0"/>
    </tripinfo>
    <tripinfo id="h4538c1:1" depart="57701.00" departLane="-10427692#1_1" departPos="5.10" departSpeed="0.00" departDelay="0.00" arrival="57755.00" arrivalLane="-128361102#1_1" arrivalPos="274.68" arrivalSpeed="13.63" duration="54.00" routeLength="440.74" waitingTime="12.00" waitingCount="1" stopTime="0.00" timeLoss="23.23" rerouteNo="1" devices="tripinfo_h4538c1:1 routing_h4538c1:1 emissions_h4538c1:1" vType="default_016" speedFactor="1.05" vaporized="">
        <emissions CO_abs="2990.316804" CO2_abs="133568.800756" HC_abs="16.766844" PMx_abs="2.550844" NOx_abs="55.767655" fuel_abs="57.416031" electricity_abs="0"/>
    </tripinfo>
    <tripinfo id="carIn30817:1" depart="57681.00" departLane="315358244_1" departPos="5.10" departSpeed="0.00" departDelay="0.20" arrival="57760.00" arrivalLane="447569997#1_1" arrivalPos="180.93" arrivalSpeed="6.22" duration="79.00" routeLength="718.04" waitingTime="0.00" waitingCount="0" stopTime="0.00" timeLoss="7.02" rerouteNo="1" devices="tripinfo_carIn30817:1 routing_carIn30817:1 emissions_carIn30817:1" vType="default_016" speedFactor="0.86" vaporized="">
        <emissions CO_abs="2334.386958" CO2_abs="142592.840644" HC_abs="13.886447" PMx_abs="2.054195" NOx_abs="55.453874" fuel_abs="61.295378" electricity_abs="0"/>
    </tripinfo>
    <tripinfo id="h3154c1:1" depart="57658.00" departLane="24634507_1" departPos="5.10" departSpeed="0.00" departDelay="0.00" arrival="57765.00" arrivalLane="-266565295#5_1" arrivalPos="172.76" arrivalSpeed="15.72" duration="107.00" routeLength="1206.22" waitingTime="7.00" waitingCount="2" stopTime="0.00" timeLoss="29.41" rerouteNo="1" devices="tripinfo_h3154c1:1 routing_h3154c1:1 emissions_h3154c1:1" vType="default_016" speedFactor="1.15" vaporized="">
        <emissions CO_abs="5230.596882" CO2_abs="346860.220382" HC_abs="32.057089" PMx_abs="6.560356" NOx_abs="143.663220" fuel_abs="149.099718" electricity_abs="0"/>
    </tripinfo>
    <tripinfo id="h3326c1:2" depart="57656.00" departLane="22716069#0_1" departPos="5.10" departSpeed="0.00" departDelay="0.00" arrival="57769.00" arrivalLane="24634517#13_1" arrivalPos="111.62" arrivalSpeed="13.17" duration="113.00" routeLength="1312.81" waitingTime="0.00" waitingCount="0" stopTime="0.00" timeLoss="14.31" rerouteNo="1" devices="tripinfo_h3326c1:2 routing_h3326c1:2 emissions_h3326c1:2" vType="default_016" speedFactor="0.99" vaporized="">
        <emissions CO_abs="4145.112659" CO2_abs="300590.850221" HC_abs="25.953249" PMx_abs="5.244540" NOx_abs="121.954222" fuel_abs="129.210895" electricity_abs="0"/>
    </tripinfo>
    <tripinfo id="carIn27009:1" depart="57673.00" departLane="-447569998#1_1" departPos="5.10" departSpeed="0.00" departDelay="0.50" arrival="57776.00" arrivalLane="-26677539_1" arrivalPos="152.75" arrivalSpeed="8.00" duration="103.00" routeLength="699.63" waitingTime="1.00" waitingCount="1" stopTime="0.00" timeLoss="15.48" rerouteNo="1" devices="tripinfo_carIn27009:1 routing_carIn27009:1 emissions_carIn27009:1" vType="default_015" speedFactor="0.96" vaporized="">
        <emissions CO_abs="4030.179954" CO2_abs="180774.382927" HC_abs="22.494777" PMx_abs="2.929463" NOx_abs="73.431154" fuel_abs="77.708520" electricity_abs="0"/>
    </tripinfo>
    <tripinfo id="h330c1:1" depart="57736.00" departLane="-32978638#0_1" departPos="5.10" departSpeed="0.00" departDelay="0.20" arrival="57776.00" arrivalLane="-266565295#5_1" arrivalPos="172.76" arrivalSpeed="12.54" duration="40.00" routeLength="370.53" waitingTime="2.00" waitingCount="1" stopTime="0.00" timeLoss="10.71" rerouteNo="1" devices="tripinfo_h330c1:1 routing_h330c1:1 emissions_h330c1:1" vType="default_016" speedFactor="0.94" vaporized="">
        <emissions CO_abs="1998.164306" CO2_abs="117987.399349" HC_abs="11.865307" PMx_abs="2.077598" NOx_abs="48.262314" fuel_abs="50.717897" electricity_abs="0"/>
    </tripinfo>
    <tripinfo id="h645c1:1" depart="57622.00" departLane="266565295#5_1" departPos="5.10" departSpeed="0.00" departDelay="0.40" arrival="57778.00" arrivalLane="-315358244_1" arrivalPos="33.95" arrivalSpeed="12.40" duration="156.00" routeLength="1910.83" waitingTime="0.00" waitingCount="0" stopTime="0.00" timeLoss="10.46" rerouteNo="1" devices="tripinfo_h645c1:1 routing_h645c1:1 emissions_h645c1:1" vType="default_016" speedFactor="0.95" vaporized="">
        <emissions CO_abs="3276.132234" CO2_abs="316469.129043" HC_abs="22.248832" PMx_abs="4.628377" NOx_abs="121.373083" fuel_abs="136.036838" electricity_abs="0"/>
    </tripinfo>
    <tripinfo id="carIn118591:1" depart="57689.00" departLane="315358244_1" departPos="5.10" departSpeed="0.00" departDelay="0.20" arrival="57790.00" arrivalLane="386687235_1" arrivalPos="80.84" arrivalSpeed="13.67" duration="101.00" routeLength="1186.14" waitingTime="0.00" waitingCount="0" stopTime="0.00" timeLoss="13.96" rerouteNo="1" devices="tripinfo_carIn118591:1 routing_carIn118591:1 emissions_carIn118591:1" vType="default_016" speedFactor="1.00" vaporized="">
        <emissions CO_abs="2885.752862" CO2_abs="239508.421472" HC_abs="18.668994" PMx_abs="3.692804" NOx_abs="93.158889" fuel_abs="102.954692" electricity_abs="0"/>
    </tripinfo>
    <tripinfo id="carIn12365:1" depart="57713.00" departLane="315358244_1" departPos="5.10" departSpeed="0.00" departDelay="0.50" arrival="57790.00" arrivalLane="447569997#1_1" arrivalPos="180.93" arrivalSpeed="8.12" duration="77.00" routeLength="718.04" waitingTime="5.00" waitingCount="1" stopTime="0.00" timeLoss="17.82" rerouteNo="1" devices="tripinfo_carIn12365:1 routing_carIn12365:1 emissions_carIn12365:1" vType="default_016" speedFactor="1.04" vaporized="">
        <emissions CO_abs="2758.353460" CO2_abs="163586.089088" HC_abs="16.306625" PMx_abs="2.619299" NOx_abs="64.908476" fuel_abs="70.319299" electricity_abs="0"/>
    </tripinfo>
    <tripinfo id="carIn48184:1" depart="57613.00" departLane="-306240162#1_0" departPos="5.10" departSpeed="0.00" departDelay="0.70" arrival="57793.00" arrivalLane="386687235_1" arrivalPos="80.84" arrivalSpeed="13.09" duration="180.00" routeLength="2257.41" waitingTime="5.00" waitingCount="1" stopTime="0.00" timeLoss="32.62" rerouteNo="1" devices="tripinfo_carIn48184:1 routing_carIn48184:1 emissions_carIn48184:1" vType="default_016" speedFactor="1.01" vaporized="">
        <emissions CO_abs="6460.989838" CO2_abs="504526.491441" HC_abs="41.229300" PMx_abs="8.821215" NOx_abs="201.626239" fuel_abs="216.873784" electricity_abs="0"/>
    </tripinfo>
    <tripinfo id="carIn107282:1" depart="57749.00" departLane="-447569998#1_1" departPos="5.10" departSpeed="0.00" departDelay="0.00" arrival="57794.00" arrivalLane="315358242#0_1" arrivalPos="165.37" arrivalSpeed="14.37" duration="45.00" routeLength="448.50" waitingTime="0.00" waitingCount="0" stopTime="0.00" timeLoss="4.60" rerouteNo="1" devices="tripinfo_carIn107282:1 routing_carIn107282:1 emissions_carIn107282:1" vType="default_016" speedFactor="1.04" vaporized="">
        <emissions CO_abs="1752.264611" CO2_abs="111083.160330" HC_abs="10.535770" PMx_abs="1.760495" NOx_abs="44.003415" fuel_abs="47.750253" electricity_abs="0"/>
    </tripinfo>
    <tripinfo id="carIn82220:1" depart="57619.00" departLane="-306240162#1_0" departPos="5.10" departSpeed="0.00" departDelay="3.50" arrival="57796.00" arrivalLane="386687235_1" arrivalPos="80.84" arrivalSpeed="12.64" duration="177.00" routeLength="2257.41" waitingTime="0.00" waitingCount="0" stopTime="0.00" timeLoss="16.73" rerouteNo="1" devices="tripinfo_carIn82220:1 routing_carIn82220:1 emissions_carIn82220:1" vType="default_016" speedFactor="0.93" vaporized="">
        <emissions CO_abs="4942.217498" CO2_abs="445318.012655" HC_abs="32.902426" PMx_abs="7.120991" NOx_abs="173.551324" fuel_abs="191.423052" electricity_abs="0"/>
    </tripinfo>
    <tripinfo id="carIn129809:1" depart="57729.00" departLane="-447569998#1_1" departPos="5.10" departSpeed="0.00" departDelay="1.00" arrival="57802.00" arrivalLane="-315358244_1" arrivalPos="33.95" arrivalSpeed="11.72" duration="73.00" routeLength="706.49" waitingTime="0.00" waitingCount="0" stopTime="0.00" timeLoss="6.80" rerouteNo="1" devices="tripinfo_carIn129809:1 routing_carIn129809:1 emissions_carIn129809:1" vType="default_015" speedFactor="0.92" vaporized="">
        <emissions CO_abs="2173.057270" CO2_abs="131882.231557" HC_abs="12.949216" PMx_abs="2.118024" NOx_abs="52.674307" fuel_abs="56.690965" electricity_abs="0"/>
    </tripinfo>
    <tripinfo id="carIn86816:1" depart="57617.00" departLane="128361102#0_1" departPos="5.10" departSpeed="0.00" departDelay="0.80" arrival="57807.00" arrivalLane="201956811#0_1" arrivalPos="40.40" arrivalSpeed="11.28" duration="190.00" routeLength="2067.33" waitingTime="0.00" waitingCount="0" stopTime="0.00" timeLoss="17.42" rerouteNo="1" devices="tripinfo_carIn86816:1 routing_carIn86816:1 emissions_carIn86816:1" vType="default_016" speedFactor="0.88" vaporized="">
        <emissions CO_abs="5337.671694" CO2_abs="411328.385075" HC_abs="33.826472" PMx_abs="6.281832" NOx_abs="161.259121" fuel_abs="176.813195" electricity_abs="0"/>
    </tripinfo>
    <tripinfo id="carIn46110:1" depart="57684.00" departLane="315358244_1" departPos="5.10" departSpeed="0.00" departDelay="1.20" arrival="57808.00" arrivalLane="32978638#0_1" arrivalPos="49.29" arrivalSpeed="16.80" duration="124.00" routeLength="1764.04" waitingTime="0.00" waitingCount="0" stopTime="0.00" timeLoss="17.64" rerouteNo="1" devices="tripinfo_carIn46110:1 routing_carIn46110:1 emissions_carIn46110:1" vType="default_016" speedFactor="1.21" vaporized="">
        <emissions CO_abs="4437.236954" CO2_abs="365104.540791" HC_abs="28.598393" PMx_abs="6.484207" NOx_abs="146.018148" fuel_abs="156.942073" electricity_abs="0"/>
    </tripinfo>
    <tripinfo id="carIn116184:1" depart="57627.00" departLane="-306240162#1_0" departPos="5.10" departSpeed="0.00" departDelay="0.10" arrival="57813.00" arrivalLane="386687235_1" arrivalPos="80.84" arrivalSpeed="16.52" duration="186.00" routeLength="2257.41" waitingTime="6.00" waitingCount="1" stopTime="0.00" timeLoss="61.35" rerouteNo="1" devices="tripinfo_carIn116184:1 routing_carIn116184:1 emissions_carIn116184:1" vType="default_016" speedFactor="1.19" vaporized="">
        <emissions CO_abs="7516.652117" CO2_abs="555169.296643" HC_abs="47.146588" PMx_abs="10.033953" NOx_abs="225.639680" fuel_abs="238.642559" electricity_abs="0"/>
    </tripinfo>
    <tripinfo id="carIn28951:1" depart="57606.00" departLane="10425609#0_1" departPos="5.10" departSpeed="0.00" departDelay="0.20" arrival="57815.00" arrivalLane="-128361102#1_1" arrivalPos="274.68" arrivalSpeed="11.05" duration="209.00" routeLength="2095.01" waitingTime="0.00" waitingCount="0" stopTime="0.00" timeLoss="17.85" rerouteNo="1" devices="tripinfo_carIn28951:1 routing_carIn28951:1 emissions_carIn28951:1" vType="default_016" speedFactor="0.81" vaporized="">
        <emissions CO_abs="5938.210189" CO2_abs="434925.774741" HC_abs="37.001259" PMx_abs="6.188045" NOx_abs="168.195564" fuel_abs="186.957626" electricity_abs="0"/>
    </tripinfo>
    <tripinfo id="carIn82278:1" depart="57702.00" departLane="-306240162#1_0" departPos="5.10" departSpeed="0.00" departDelay="0.70" arrival="57815.00" arrivalLane="399835085#1_1" arrivalPos="212.23" arrivalSpeed="7.13" duration="113.00" routeLength="1093.26" waitingTime="14.00" waitingCount="1" stopTime="0.00" timeLoss="33.97" rerouteNo="1" devices="tripinfo_carIn82278:1 routing_carIn82278:1 emissions_carIn82278:1" vType="default_016" speedFactor="0.99" vaporized="">
        <emissions CO_abs="5922.272884" CO2_abs="296923.776764" HC_abs="34.016103" PMx_abs="5.747801" NOx_abs="123.907609" fuel_abs="127.635301" electricity_abs="0"/>
    </tripinfo>
    <tripinfo id="carIn462:1" depart="57622.00" departLane="-306240162#1_0" departPos="5.10" departSpeed="0.00" departDelay="4.80" arrival="57816.00" arrivalLane="386687235_2" arrivalPos="80.84" arrivalSpeed="10.95" duration="194.00" routeLength="2257.41" waitingTime="0.00" waitingCount="0" stopTime="0.00" timeLoss="18.78" rerouteNo="1" devices="tripinfo_carIn462:1 routing_carIn462:1 emissions_carIn462:1" vType="default_016" speedFactor="0.85" vaporized="">
        <emissions CO_abs="5646.557689" CO2_abs="452647.151746" HC_abs="36.258836" PMx_abs="7.266399" NOx_abs="178.397116" fuel_abs="194.573838" electricity_abs="0"/>
    </tripinfo>
    <tripinfo id="carIn31257:1" depart="57630.00" departLane="-306240162#1_0" departPos="5.10" departSpeed="0.00" departDelay="1.60" arrival="57816.00" arrivalLane="386687235_1" arrivalPos="80.84" arrivalSpeed="11.92" duration="186.00" routeLength="2257.41" waitingTime="0.00" waitingCount="0" stopTime="0.00" timeLoss="18.70" rerouteNo="1" devices="tripinfo_carIn31257:1 routing_carIn31257:1 emissions_carIn31257:1" vType="default_016" speedFactor="0.89" vaporized="">
        <emissions CO_abs="5613.407524" CO2_abs="452375.855586" HC_abs="35.990044" PMx_abs="7.432313" NOx_abs="179.163394" fuel_abs="194.456929" electricity_abs="0"/>
    </tripinfo>
    <tripinfo id="carIn50326:1" depart="57651.00" departLane="128361102#0_1" departPos="5.10" departSpeed="0.00" departDelay="0.30" arrival="57817.00" arrivalLane="18809673#0_1" arrivalPos="473.56" arrivalSpeed="12.43" duration="166.00" routeLength="1591.07" waitingTime="2.00" waitingCount="1" stopTime="0.00" timeLoss="21.46" rerouteNo="1" devices="tripinfo_carIn50326:1 routing_carIn50326:1 emissions_carIn50326:1" vType="default_016" speedFactor="0.90" vaporized="">
        <emissions CO_abs="5561.877757" CO2_abs="352582.159720" HC_abs="33.474357" PMx_abs="5.527530" NOx_abs="139.850796" fuel_abs="151.561156" electricity_abs="0"/>
    </tripinfo>
    <tripinfo id="carIn101568:1" depart="57638.00" departLane="-306240162#1_0" departPos="5.10" departSpeed="0.00" departDelay="0.50" arrival="57818.00" arrivalLane="386687235_1" arrivalPos="80.84" arrivalSpeed="12.96" duration="180.00" routeLength="2257.41" waitingTime="1.00" waitingCount="1" stopTime="0.00" timeLoss="23.90" rerouteNo="1" devices="tripinfo_carIn101568:1 routing_carIn101568:1 emissions_carIn101568:1" vType="default_016" speedFactor="0.95" vaporized="">
        <emissions CO_abs="6045.258865" CO2_abs="484182.520138" HC_abs="38.907572" PMx_abs="8.179329" NOx_abs="192.475620" fuel_abs="208.129044" electricity_abs="0"/>
    </tripinfo>
    <tripinfo id="h11737c1:1" depart="57665.00" departLane="272042143_1" departPos="5.10" departSpeed="0.00" departDelay="1.50" arrival="57818.00" arrivalLane="-315358254#1_1" arrivalPos="137.16" arrivalSpeed="11.48" duration="153.00" routeLength="1596.88" waitingTime="12.00" waitingCount="1" stopTime="0.00" timeLoss="26.07" rerouteNo="1" devices="tripinfo_h11737c1:1 routing_h11737c1:1 emissions_h11737c1:1" vType="default_016" speedFactor="0.92" vaporized="">
        <emissions CO_abs="5140.176995" CO2_abs="319840.006546" HC_abs="30.846338" PMx_abs="5.211563" NOx_abs="127.231378" fuel_abs="137.486471" electricity_abs="0"/>
    </tripinfo>
    <tripinfo id="h5216c1:1" depart="57664.00" departLane="224892339#0_1" departPos="5.10" departSpeed="0.00" departDelay="0.00" arrival="57818.00" arrivalLane="386687235_2" arrivalPos="80.84" arrivalSpeed="13.21" duration="154.00" routeLength="1823.78" waitingTime="0.00" waitingCount="0" stopTime="0.00" timeLoss="24.81" rerouteNo="1" devices="tripinfo_h5216c1:1 routing_h5216c1:1 emissions_h5216c1:1" vType="default_016" speedFactor="0.99" vaporized="">
        <emissions CO_abs="5750.453457" CO2_abs="440251.566512" HC_abs="36.485854" PMx_abs="7.503246" NOx_abs="176.644304" fuel_abs="189.245018" electricity_abs="0"/>
    </tripinfo>
    <tripinfo id="carIn107084:1" depart="57601.00" departLane="124812856#0_1" departPos="5.10" departSpeed="0.00" departDelay="0.70" arrival="57819.00" arrivalLane="-128361102#1_1" arrivalPos="274.68" arrivalSpeed="11.04" duration="218.00" routeLength="2250.49" waitingTime="3.00" waitingCount="1" stopTime="0.00" timeLoss="23.94" rerouteNo="1" devices="tripinfo_carIn107084:1 routing_carIn107084:1 emissions_carIn107084:1" vType="default_016" speedFactor="0.85" vaporized="">
        <emissions CO_abs="5942.706989" CO2_abs="434034.519900" HC_abs="37.090646" PMx_abs="6.619510" NOx_abs="170.446578" fuel_abs="186.573875" electricity_abs="0"/>
    </tripinfo>
    <tripinfo id="carIn126288:1" depart="57674.00" departLane="272042143_1" departPos="5.10" departSpeed="0.00" departDelay="0.00" arrival="57820.00" arrivalLane="-315358254#1_1" arrivalPos="137.16" arrivalSpeed="13.07" duration="146.00" routeLength="1596.88" waitingTime="9.00" waitingCount="1" stopTime="0.00" timeLoss="27.47" rerouteNo="1" devices="tripinfo_carIn126288:1 routing_carIn126288:1 emissions_carIn126288:1" vType="default_016" speedFactor="0.99" vaporized="">
        <emissions CO_abs="5044.989320" CO2_abs="340115.083802" HC_abs="30.914353" PMx_abs="5.615615" NOx_abs="135.271885" fuel_abs="146.201497" electricity_abs="0"/>
    </tripinfo>
    <tripinfo id="carIn81860:1" depart="57712.00" departLane="128361102#0_1" departPos="5.10" departSpeed="0.00" departDelay="0.60" arrival="57820.00" arrivalLane="-24634517#17_1" arrivalPos="6.43" arrivalSpeed="8.11" duration="108.00" routeLength="1229.64" waitingTime="8.00" waitingCount="1" stopTime="0.00" timeLoss="28.39" rerouteNo="1" devices="tripinfo_carIn81860:1 routing_carIn81860:1 emissions_carIn81860:1" vType="default_016" speedFactor="1.14" vaporized="">
        <emissions CO_abs="4419.643054" CO2_abs="294217.221732" HC_abs="26.874768" PMx_abs="5.191934" NOx_abs="118.639781" fuel_abs="126.471449" electricity_abs="0"/>
    </tripinfo>
    <tripinfo id="carIn77943:1" depart="57608.00" departLane="124812856#0_1" departPos="5.10" departSpeed="0.00" departDelay="2.50" arrival="57821.00" arrivalLane="-128361102#1_1" arrivalPos="274.68" arrivalSpeed="12.27" duration="213.00" routeLength="2250.49" waitingTime="0.00" waitingCount="0" stopTime="0.00" timeLoss="42.53" rerouteNo="1" devices="tripinfo_carIn77943:1 routing_carIn77943:1 emissions_carIn77943:1" vType="default_016" speedFactor="0.97" vaporized="">
        <emissions CO_abs="8143.930606" CO2_abs="556936.176547" HC_abs="50.138189" PMx_abs="9.576022" NOx_abs="226.089549" fuel_abs="239.403072" electricity_abs="0"/>
    </tripinfo>
    <tripinfo id="h3864c1:3" depart="57678.00" departLane="24693977#1_1" departPos="5.10" departSpeed="0.00" departDelay="0.00" arrival="57821.00" arrivalLane="201956820_2" arrivalPos="48.33" arrivalSpeed="15.47" duration="143.00" routeLength="1574.85" waitingTime="6.00" waitingCount="1" stopTime="0.00" timeLoss="28.87" rerouteNo="1" devices="tripinfo_h3864c1:3 routing_h3864c1:3 emissions_h3864c1:3" vType="default_016" speedFactor="1.14" vaporized="">
        <emissions CO_abs="5903.990114" CO2_abs="401979.164324" HC_abs="36.230574" PMx_abs="7.147522" NOx_abs="163.587815" fuel_abs="172.793424" electricity_abs="0"/>
    </tripinfo>
    <tripinfo id="carIn81046:1" depart="57611.00" departLane="124812856#0_1" departPos="5.10" departSpeed="0.00" departDelay="2.50" arrival="57823.00" arrivalLane="-128361102#1_1" arrivalPos="274.68" arrivalSpeed="13.76" duration="212.00" routeLength="2250.49" waitingTime="0.00" waitingCount="0" stopTime="0.00" timeLoss="51.84" rerouteNo="1" devices="tripinfo_carIn81046:1 routing_carIn81046:1 emissions_carIn81046:1" vType="default_016" speedFactor="1.03" vaporized="">
        <emissions CO_abs="8891.458562" CO2_abs="601365.205679" HC_abs="54.669554" PMx_abs="10.801462" NOx_abs="247.325485" fuel_abs="258.500571" electricity_abs="0"/>
    </tripinfo>
    <tripinfo id="h5979c1:5" depart="57669.00" departLane="399835085#1_1" departPos="5.10" departSpeed="0.00" departDelay="0.00" arrival="57823.00" arrivalLane="-315358254#1_1" arrivalPos="137.16" arrivalSpeed="13.31" duration="154.00" routeLength="659.33" waitingTime="64.00" waitingCount="2" stopTime="0.00" timeLoss="82.02" rerouteNo="1" devices="tripinfo_h5979c1:5 routing_h5979c1:5 emissions_h5979c1:5" vType="default_016" speedFactor="1.02" vaporized="">
        <emissions CO_abs="13212.824854" CO2_abs="326057.745662" HC_abs="67.744982" PMx_abs="6.736607" NOx_abs="140.720122" fuel_abs="140.163685" electricity_abs="0"/>
    </tripinfo>